+ 0.1 0 1 tcp 40 ------- 2 0.1 1.1 0 0
- 0.1 0 1 tcp 40 ------- 2 0.1 1.1 0 0
+ 0.1 0 1 tcp 40 ------- 3 0.2 1.2 0 1
+ 0.1 0 1 tcp 40 ------- 4 0.3 1.3 0 2
- 0.10016 0 1 tcp 40 ------- 3 0.2 1.2 0 1
- 0.10032 0 1 tcp 40 ------- 4 0.3 1.3 0 2
+ 0.101547 0 1 exp 100 ------- 1 0.0 1.0 0 3
- 0.101547 0 1 exp 100 ------- 1 0.0 1.0 0 3
+ 0.10208 0 1 exp 100 ------- 1 0.0 1.0 1 4
- 0.10208 0 1 exp 100 ------- 1 0.0 1.0 1 4
+ 0.102614 0 1 exp 100 ------- 1 0.0 1.0 2 5
- 0.102614 0 1 exp 100 ------- 1 0.0 1.0 2 5
+ 0.103147 0 1 exp 100 ------- 1 0.0 1.0 3 6
- 0.103147 0 1 exp 100 ------- 1 0.0 1.0 3 6
+ 0.10368 0 1 exp 100 ------- 1 0.0 1.0 4 7
- 0.10368 0 1 exp 100 ------- 1 0.0 1.0 4 7
+ 0.104214 0 1 exp 100 ------- 1 0.0 1.0 5 8
- 0.104214 0 1 exp 100 ------- 1 0.0 1.0 5 8
+ 0.104747 0 1 exp 100 ------- 1 0.0 1.0 6 9
- 0.104747 0 1 exp 100 ------- 1 0.0 1.0 6 9
+ 0.10528 0 1 exp 100 ------- 1 0.0 1.0 7 10
- 0.10528 0 1 exp 100 ------- 1 0.0 1.0 7 10
+ 0.105814 0 1 exp 100 ------- 1 0.0 1.0 8 11
- 0.105814 0 1 exp 100 ------- 1 0.0 1.0 8 11
+ 0.106347 0 1 exp 100 ------- 1 0.0 1.0 9 12
- 0.106347 0 1 exp 100 ------- 1 0.0 1.0 9 12
+ 0.10688 0 1 exp 100 ------- 1 0.0 1.0 10 13
- 0.10688 0 1 exp 100 ------- 1 0.0 1.0 10 13
+ 0.107414 0 1 exp 100 ------- 1 0.0 1.0 11 14
- 0.107414 0 1 exp 100 ------- 1 0.0 1.0 11 14
+ 0.107947 0 1 exp 100 ------- 1 0.0 1.0 12 15
- 0.107947 0 1 exp 100 ------- 1 0.0 1.0 12 15
+ 0.10848 0 1 exp 100 ------- 1 0.0 1.0 13 16
- 0.10848 0 1 exp 100 ------- 1 0.0 1.0 13 16
+ 0.109014 0 1 exp 100 ------- 1 0.0 1.0 14 17
- 0.109014 0 1 exp 100 ------- 1 0.0 1.0 14 17
+ 0.109547 0 1 exp 100 ------- 1 0.0 1.0 15 18
- 0.109547 0 1 exp 100 ------- 1 0.0 1.0 15 18
+ 0.11008 0 1 exp 100 ------- 1 0.0 1.0 16 19
- 0.11008 0 1 exp 100 ------- 1 0.0 1.0 16 19
+ 0.110614 0 1 exp 100 ------- 1 0.0 1.0 17 20
- 0.110614 0 1 exp 100 ------- 1 0.0 1.0 17 20
+ 0.111147 0 1 exp 100 ------- 1 0.0 1.0 18 21
- 0.111147 0 1 exp 100 ------- 1 0.0 1.0 18 21
+ 0.11168 0 1 exp 100 ------- 1 0.0 1.0 19 22
- 0.11168 0 1 exp 100 ------- 1 0.0 1.0 19 22
+ 0.112214 0 1 exp 100 ------- 1 0.0 1.0 20 23
- 0.112214 0 1 exp 100 ------- 1 0.0 1.0 20 23
+ 0.112747 0 1 exp 100 ------- 1 0.0 1.0 21 24
- 0.112747 0 1 exp 100 ------- 1 0.0 1.0 21 24
+ 0.115521 0 1 exp 100 ------- 1 0.0 1.0 22 25
- 0.115521 0 1 exp 100 ------- 1 0.0 1.0 22 25
+ 0.116054 0 1 exp 100 ------- 1 0.0 1.0 23 26
- 0.116054 0 1 exp 100 ------- 1 0.0 1.0 23 26
+ 0.116587 0 1 exp 100 ------- 1 0.0 1.0 24 27
- 0.116587 0 1 exp 100 ------- 1 0.0 1.0 24 27
+ 0.117121 0 1 exp 100 ------- 1 0.0 1.0 25 28
- 0.117121 0 1 exp 100 ------- 1 0.0 1.0 25 28
+ 0.117654 0 1 exp 100 ------- 1 0.0 1.0 26 29
- 0.117654 0 1 exp 100 ------- 1 0.0 1.0 26 29
+ 0.118187 0 1 exp 100 ------- 1 0.0 1.0 27 30
- 0.118187 0 1 exp 100 ------- 1 0.0 1.0 27 30
+ 0.118721 0 1 exp 100 ------- 1 0.0 1.0 28 31
- 0.118721 0 1 exp 100 ------- 1 0.0 1.0 28 31
+ 0.119254 0 1 exp 100 ------- 1 0.0 1.0 29 32
- 0.119254 0 1 exp 100 ------- 1 0.0 1.0 29 32
+ 0.119787 0 1 exp 100 ------- 1 0.0 1.0 30 33
- 0.119787 0 1 exp 100 ------- 1 0.0 1.0 30 33
r 0.12016 0 1 tcp 40 ------- 2 0.1 1.1 0 0
+ 0.12016 1 0 ack 40 ------- 2 1.1 0.1 0 34
- 0.12016 1 0 ack 40 ------- 2 1.1 0.1 0 34
r 0.12032 0 1 tcp 40 ------- 3 0.2 1.2 0 1
+ 0.12032 1 0 ack 40 ------- 3 1.2 0.2 0 35
- 0.12032 1 0 ack 40 ------- 3 1.2 0.2 0 35
+ 0.120321 0 1 exp 100 ------- 1 0.0 1.0 31 36
- 0.120321 0 1 exp 100 ------- 1 0.0 1.0 31 36
r 0.12048 0 1 tcp 40 ------- 4 0.3 1.3 0 2
+ 0.12048 1 0 ack 40 ------- 4 1.3 0.3 0 37
- 0.12048 1 0 ack 40 ------- 4 1.3 0.3 0 37
+ 0.120854 0 1 exp 100 ------- 1 0.0 1.0 32 38
- 0.120854 0 1 exp 100 ------- 1 0.0 1.0 32 38
+ 0.121387 0 1 exp 100 ------- 1 0.0 1.0 33 39
- 0.121387 0 1 exp 100 ------- 1 0.0 1.0 33 39
+ 0.121921 0 1 exp 100 ------- 1 0.0 1.0 34 40
- 0.121921 0 1 exp 100 ------- 1 0.0 1.0 34 40
r 0.121947 0 1 exp 100 ------- 1 0.0 1.0 0 3
+ 0.122454 0 1 exp 100 ------- 1 0.0 1.0 35 41
- 0.122454 0 1 exp 100 ------- 1 0.0 1.0 35 41
r 0.12248 0 1 exp 100 ------- 1 0.0 1.0 1 4
+ 0.122987 0 1 exp 100 ------- 1 0.0 1.0 36 42
- 0.122987 0 1 exp 100 ------- 1 0.0 1.0 36 42
r 0.123014 0 1 exp 100 ------- 1 0.0 1.0 2 5
+ 0.123521 0 1 exp 100 ------- 1 0.0 1.0 37 43
- 0.123521 0 1 exp 100 ------- 1 0.0 1.0 37 43
r 0.123547 0 1 exp 100 ------- 1 0.0 1.0 3 6
+ 0.124054 0 1 exp 100 ------- 1 0.0 1.0 38 44
- 0.124054 0 1 exp 100 ------- 1 0.0 1.0 38 44
r 0.12408 0 1 exp 100 ------- 1 0.0 1.0 4 7
+ 0.124587 0 1 exp 100 ------- 1 0.0 1.0 39 45
- 0.124587 0 1 exp 100 ------- 1 0.0 1.0 39 45
r 0.124614 0 1 exp 100 ------- 1 0.0 1.0 5 8
+ 0.125121 0 1 exp 100 ------- 1 0.0 1.0 40 46
- 0.125121 0 1 exp 100 ------- 1 0.0 1.0 40 46
r 0.125147 0 1 exp 100 ------- 1 0.0 1.0 6 9
+ 0.125654 0 1 exp 100 ------- 1 0.0 1.0 41 47
- 0.125654 0 1 exp 100 ------- 1 0.0 1.0 41 47
r 0.12568 0 1 exp 100 ------- 1 0.0 1.0 7 10
+ 0.126187 0 1 exp 100 ------- 1 0.0 1.0 42 48
- 0.126187 0 1 exp 100 ------- 1 0.0 1.0 42 48
r 0.126214 0 1 exp 100 ------- 1 0.0 1.0 8 11
+ 0.126721 0 1 exp 100 ------- 1 0.0 1.0 43 49
- 0.126721 0 1 exp 100 ------- 1 0.0 1.0 43 49
r 0.126747 0 1 exp 100 ------- 1 0.0 1.0 9 12
+ 0.127254 0 1 exp 100 ------- 1 0.0 1.0 44 50
- 0.127254 0 1 exp 100 ------- 1 0.0 1.0 44 50
r 0.12728 0 1 exp 100 ------- 1 0.0 1.0 10 13
+ 0.127787 0 1 exp 100 ------- 1 0.0 1.0 45 51
- 0.127787 0 1 exp 100 ------- 1 0.0 1.0 45 51
r 0.127814 0 1 exp 100 ------- 1 0.0 1.0 11 14
+ 0.128321 0 1 exp 100 ------- 1 0.0 1.0 46 52
- 0.128321 0 1 exp 100 ------- 1 0.0 1.0 46 52
r 0.128347 0 1 exp 100 ------- 1 0.0 1.0 12 15
+ 0.128854 0 1 exp 100 ------- 1 0.0 1.0 47 53
- 0.128854 0 1 exp 100 ------- 1 0.0 1.0 47 53
r 0.12888 0 1 exp 100 ------- 1 0.0 1.0 13 16
+ 0.129387 0 1 exp 100 ------- 1 0.0 1.0 48 54
- 0.129387 0 1 exp 100 ------- 1 0.0 1.0 48 54
r 0.129414 0 1 exp 100 ------- 1 0.0 1.0 14 17
r 0.129947 0 1 exp 100 ------- 1 0.0 1.0 15 18
r 0.13048 0 1 exp 100 ------- 1 0.0 1.0 16 19
+ 0.130814 0 1 exp 100 ------- 1 0.0 1.0 49 55
- 0.130814 0 1 exp 100 ------- 1 0.0 1.0 49 55
r 0.131014 0 1 exp 100 ------- 1 0.0 1.0 17 20
+ 0.131348 0 1 exp 100 ------- 1 0.0 1.0 50 56
- 0.131348 0 1 exp 100 ------- 1 0.0 1.0 50 56
r 0.131547 0 1 exp 100 ------- 1 0.0 1.0 18 21
+ 0.131881 0 1 exp 100 ------- 1 0.0 1.0 51 57
- 0.131881 0 1 exp 100 ------- 1 0.0 1.0 51 57
r 0.13208 0 1 exp 100 ------- 1 0.0 1.0 19 22
+ 0.132414 0 1 exp 100 ------- 1 0.0 1.0 52 58
- 0.132414 0 1 exp 100 ------- 1 0.0 1.0 52 58
r 0.132614 0 1 exp 100 ------- 1 0.0 1.0 20 23
+ 0.132948 0 1 exp 100 ------- 1 0.0 1.0 53 59
- 0.132948 0 1 exp 100 ------- 1 0.0 1.0 53 59
r 0.133147 0 1 exp 100 ------- 1 0.0 1.0 21 24
+ 0.133481 0 1 exp 100 ------- 1 0.0 1.0 54 60
- 0.133481 0 1 exp 100 ------- 1 0.0 1.0 54 60
+ 0.134014 0 1 exp 100 ------- 1 0.0 1.0 55 61
- 0.134014 0 1 exp 100 ------- 1 0.0 1.0 55 61
+ 0.134548 0 1 exp 100 ------- 1 0.0 1.0 56 62
- 0.134548 0 1 exp 100 ------- 1 0.0 1.0 56 62
+ 0.135081 0 1 exp 100 ------- 1 0.0 1.0 57 63
- 0.135081 0 1 exp 100 ------- 1 0.0 1.0 57 63
+ 0.135614 0 1 exp 100 ------- 1 0.0 1.0 58 64
- 0.135614 0 1 exp 100 ------- 1 0.0 1.0 58 64
r 0.135921 0 1 exp 100 ------- 1 0.0 1.0 22 25
+ 0.136148 0 1 exp 100 ------- 1 0.0 1.0 59 65
- 0.136148 0 1 exp 100 ------- 1 0.0 1.0 59 65
r 0.136454 0 1 exp 100 ------- 1 0.0 1.0 23 26
+ 0.136681 0 1 exp 100 ------- 1 0.0 1.0 60 66
- 0.136681 0 1 exp 100 ------- 1 0.0 1.0 60 66
r 0.136987 0 1 exp 100 ------- 1 0.0 1.0 24 27
+ 0.137214 0 1 exp 100 ------- 1 0.0 1.0 61 67
- 0.137214 0 1 exp 100 ------- 1 0.0 1.0 61 67
r 0.137521 0 1 exp 100 ------- 1 0.0 1.0 25 28
+ 0.137748 0 1 exp 100 ------- 1 0.0 1.0 62 68
- 0.137748 0 1 exp 100 ------- 1 0.0 1.0 62 68
r 0.138054 0 1 exp 100 ------- 1 0.0 1.0 26 29
+ 0.138281 0 1 exp 100 ------- 1 0.0 1.0 63 69
- 0.138281 0 1 exp 100 ------- 1 0.0 1.0 63 69
r 0.138587 0 1 exp 100 ------- 1 0.0 1.0 27 30
+ 0.138814 0 1 exp 100 ------- 1 0.0 1.0 64 70
- 0.138814 0 1 exp 100 ------- 1 0.0 1.0 64 70
r 0.139121 0 1 exp 100 ------- 1 0.0 1.0 28 31
+ 0.139348 0 1 exp 100 ------- 1 0.0 1.0 65 71
- 0.139348 0 1 exp 100 ------- 1 0.0 1.0 65 71
r 0.139654 0 1 exp 100 ------- 1 0.0 1.0 29 32
+ 0.139881 0 1 exp 100 ------- 1 0.0 1.0 66 72
- 0.139881 0 1 exp 100 ------- 1 0.0 1.0 66 72
r 0.140187 0 1 exp 100 ------- 1 0.0 1.0 30 33
r 0.14032 1 0 ack 40 ------- 2 1.1 0.1 0 34
+ 0.14032 0 1 tcp 1040 ------- 2 0.1 1.1 1 73
- 0.14032 0 1 tcp 1040 ------- 2 0.1 1.1 1 73
+ 0.14032 0 1 tcp 1040 ------- 2 0.1 1.1 2 74
+ 0.140414 0 1 exp 100 ------- 1 0.0 1.0 67 75
r 0.14048 1 0 ack 40 ------- 3 1.2 0.2 0 35
+ 0.14048 0 1 tcp 1040 ------- 3 0.2 1.2 1 76
r 0.14064 1 0 ack 40 ------- 4 1.3 0.3 0 37
+ 0.14064 0 1 tcp 1040 ------- 4 0.3 1.3 1 77
r 0.140721 0 1 exp 100 ------- 1 0.0 1.0 31 36
+ 0.140948 0 1 exp 100 ------- 1 0.0 1.0 68 78
r 0.141254 0 1 exp 100 ------- 1 0.0 1.0 32 38
+ 0.141481 0 1 exp 100 ------- 1 0.0 1.0 69 79
r 0.141787 0 1 exp 100 ------- 1 0.0 1.0 33 39
+ 0.142014 0 1 exp 100 ------- 1 0.0 1.0 70 80
r 0.142321 0 1 exp 100 ------- 1 0.0 1.0 34 40
r 0.142854 0 1 exp 100 ------- 1 0.0 1.0 35 41
r 0.143387 0 1 exp 100 ------- 1 0.0 1.0 36 42
r 0.143921 0 1 exp 100 ------- 1 0.0 1.0 37 43
r 0.144454 0 1 exp 100 ------- 1 0.0 1.0 38 44
- 0.14448 0 1 tcp 1040 ------- 2 0.1 1.1 2 74
r 0.144987 0 1 exp 100 ------- 1 0.0 1.0 39 45
r 0.145521 0 1 exp 100 ------- 1 0.0 1.0 40 46
r 0.146054 0 1 exp 100 ------- 1 0.0 1.0 41 47
r 0.146587 0 1 exp 100 ------- 1 0.0 1.0 42 48
r 0.147121 0 1 exp 100 ------- 1 0.0 1.0 43 49
r 0.147654 0 1 exp 100 ------- 1 0.0 1.0 44 50
r 0.148187 0 1 exp 100 ------- 1 0.0 1.0 45 51
- 0.14864 0 1 exp 100 ------- 1 0.0 1.0 67 75
r 0.148721 0 1 exp 100 ------- 1 0.0 1.0 46 52
- 0.14904 0 1 tcp 1040 ------- 3 0.2 1.2 1 76
r 0.149254 0 1 exp 100 ------- 1 0.0 1.0 47 53
r 0.149787 0 1 exp 100 ------- 1 0.0 1.0 48 54
r 0.151214 0 1 exp 100 ------- 1 0.0 1.0 49 55
r 0.151748 0 1 exp 100 ------- 1 0.0 1.0 50 56
r 0.152281 0 1 exp 100 ------- 1 0.0 1.0 51 57
r 0.152814 0 1 exp 100 ------- 1 0.0 1.0 52 58
- 0.1532 0 1 tcp 1040 ------- 4 0.3 1.3 1 77
r 0.153348 0 1 exp 100 ------- 1 0.0 1.0 53 59
r 0.153881 0 1 exp 100 ------- 1 0.0 1.0 54 60
r 0.154414 0 1 exp 100 ------- 1 0.0 1.0 55 61
r 0.154948 0 1 exp 100 ------- 1 0.0 1.0 56 62
r 0.155481 0 1 exp 100 ------- 1 0.0 1.0 57 63
r 0.156014 0 1 exp 100 ------- 1 0.0 1.0 58 64
r 0.156548 0 1 exp 100 ------- 1 0.0 1.0 59 65
r 0.157081 0 1 exp 100 ------- 1 0.0 1.0 60 66
- 0.15736 0 1 exp 100 ------- 1 0.0 1.0 68 78
r 0.157614 0 1 exp 100 ------- 1 0.0 1.0 61 67
- 0.15776 0 1 exp 100 ------- 1 0.0 1.0 69 79
r 0.158148 0 1 exp 100 ------- 1 0.0 1.0 62 68
- 0.15816 0 1 exp 100 ------- 1 0.0 1.0 70 80
+ 0.158305 0 1 exp 100 ------- 1 0.0 1.0 71 81
- 0.15856 0 1 exp 100 ------- 1 0.0 1.0 71 81
r 0.158681 0 1 exp 100 ------- 1 0.0 1.0 63 69
+ 0.158838 0 1 exp 100 ------- 1 0.0 1.0 72 82
- 0.15896 0 1 exp 100 ------- 1 0.0 1.0 72 82
r 0.159214 0 1 exp 100 ------- 1 0.0 1.0 64 70
+ 0.159371 0 1 exp 100 ------- 1 0.0 1.0 73 83
- 0.159371 0 1 exp 100 ------- 1 0.0 1.0 73 83
r 0.159748 0 1 exp 100 ------- 1 0.0 1.0 65 71
+ 0.159905 0 1 exp 100 ------- 1 0.0 1.0 74 84
- 0.159905 0 1 exp 100 ------- 1 0.0 1.0 74 84
r 0.160281 0 1 exp 100 ------- 1 0.0 1.0 66 72
+ 0.160438 0 1 exp 100 ------- 1 0.0 1.0 75 85
- 0.160438 0 1 exp 100 ------- 1 0.0 1.0 75 85
+ 0.160971 0 1 exp 100 ------- 1 0.0 1.0 76 86
- 0.160971 0 1 exp 100 ------- 1 0.0 1.0 76 86
+ 0.161505 0 1 exp 100 ------- 1 0.0 1.0 77 87
- 0.161505 0 1 exp 100 ------- 1 0.0 1.0 77 87
+ 0.162038 0 1 exp 100 ------- 1 0.0 1.0 78 88
- 0.162038 0 1 exp 100 ------- 1 0.0 1.0 78 88
+ 0.162571 0 1 exp 100 ------- 1 0.0 1.0 79 89
- 0.162571 0 1 exp 100 ------- 1 0.0 1.0 79 89
+ 0.163105 0 1 exp 100 ------- 1 0.0 1.0 80 90
- 0.163105 0 1 exp 100 ------- 1 0.0 1.0 80 90
+ 0.163638 0 1 exp 100 ------- 1 0.0 1.0 81 91
- 0.163638 0 1 exp 100 ------- 1 0.0 1.0 81 91
+ 0.164171 0 1 exp 100 ------- 1 0.0 1.0 82 92
- 0.164171 0 1 exp 100 ------- 1 0.0 1.0 82 92
r 0.16448 0 1 tcp 1040 ------- 2 0.1 1.1 1 73
+ 0.16448 1 0 ack 40 ------- 2 1.1 0.1 1 93
- 0.16448 1 0 ack 40 ------- 2 1.1 0.1 1 93
+ 0.164705 0 1 exp 100 ------- 1 0.0 1.0 83 94
- 0.164705 0 1 exp 100 ------- 1 0.0 1.0 83 94
+ 0.165238 0 1 exp 100 ------- 1 0.0 1.0 84 95
- 0.165238 0 1 exp 100 ------- 1 0.0 1.0 84 95
+ 0.165771 0 1 exp 100 ------- 1 0.0 1.0 85 96
- 0.165771 0 1 exp 100 ------- 1 0.0 1.0 85 96
+ 0.166305 0 1 exp 100 ------- 1 0.0 1.0 86 97
- 0.166305 0 1 exp 100 ------- 1 0.0 1.0 86 97
+ 0.166838 0 1 exp 100 ------- 1 0.0 1.0 87 98
- 0.166838 0 1 exp 100 ------- 1 0.0 1.0 87 98
+ 0.167371 0 1 exp 100 ------- 1 0.0 1.0 88 99
- 0.167371 0 1 exp 100 ------- 1 0.0 1.0 88 99
+ 0.167905 0 1 exp 100 ------- 1 0.0 1.0 89 100
- 0.167905 0 1 exp 100 ------- 1 0.0 1.0 89 100
+ 0.168438 0 1 exp 100 ------- 1 0.0 1.0 90 101
- 0.168438 0 1 exp 100 ------- 1 0.0 1.0 90 101
r 0.16864 0 1 tcp 1040 ------- 2 0.1 1.1 2 74
+ 0.16864 1 0 ack 40 ------- 2 1.1 0.1 2 102
- 0.16864 1 0 ack 40 ------- 2 1.1 0.1 2 102
+ 0.168971 0 1 exp 100 ------- 1 0.0 1.0 91 103
- 0.168971 0 1 exp 100 ------- 1 0.0 1.0 91 103
r 0.16904 0 1 exp 100 ------- 1 0.0 1.0 67 75
+ 0.169505 0 1 exp 100 ------- 1 0.0 1.0 92 104
- 0.169505 0 1 exp 100 ------- 1 0.0 1.0 92 104
+ 0.170038 0 1 exp 100 ------- 1 0.0 1.0 93 105
- 0.170038 0 1 exp 100 ------- 1 0.0 1.0 93 105
+ 0.170571 0 1 exp 100 ------- 1 0.0 1.0 94 106
- 0.170571 0 1 exp 100 ------- 1 0.0 1.0 94 106
+ 0.171105 0 1 exp 100 ------- 1 0.0 1.0 95 107
- 0.171105 0 1 exp 100 ------- 1 0.0 1.0 95 107
+ 0.171638 0 1 exp 100 ------- 1 0.0 1.0 96 108
- 0.171638 0 1 exp 100 ------- 1 0.0 1.0 96 108
+ 0.172171 0 1 exp 100 ------- 1 0.0 1.0 97 109
- 0.172171 0 1 exp 100 ------- 1 0.0 1.0 97 109
+ 0.172705 0 1 exp 100 ------- 1 0.0 1.0 98 110
- 0.172705 0 1 exp 100 ------- 1 0.0 1.0 98 110
r 0.1732 0 1 tcp 1040 ------- 3 0.2 1.2 1 76
+ 0.1732 1 0 ack 40 ------- 3 1.2 0.2 1 111
- 0.1732 1 0 ack 40 ------- 3 1.2 0.2 1 111
+ 0.173238 0 1 exp 100 ------- 1 0.0 1.0 99 112
- 0.173238 0 1 exp 100 ------- 1 0.0 1.0 99 112
+ 0.173771 0 1 exp 100 ------- 1 0.0 1.0 100 113
- 0.173771 0 1 exp 100 ------- 1 0.0 1.0 100 113
+ 0.174305 0 1 exp 100 ------- 1 0.0 1.0 101 114
- 0.174305 0 1 exp 100 ------- 1 0.0 1.0 101 114
+ 0.174838 0 1 exp 100 ------- 1 0.0 1.0 102 115
- 0.174838 0 1 exp 100 ------- 1 0.0 1.0 102 115
+ 0.175371 0 1 exp 100 ------- 1 0.0 1.0 103 116
- 0.175371 0 1 exp 100 ------- 1 0.0 1.0 103 116
+ 0.175905 0 1 exp 100 ------- 1 0.0 1.0 104 117
- 0.175905 0 1 exp 100 ------- 1 0.0 1.0 104 117
r 0.17736 0 1 tcp 1040 ------- 4 0.3 1.3 1 77
+ 0.17736 1 0 ack 40 ------- 4 1.3 0.3 1 118
- 0.17736 1 0 ack 40 ------- 4 1.3 0.3 1 118
r 0.17776 0 1 exp 100 ------- 1 0.0 1.0 68 78
r 0.17816 0 1 exp 100 ------- 1 0.0 1.0 69 79
r 0.17856 0 1 exp 100 ------- 1 0.0 1.0 70 80
r 0.17896 0 1 exp 100 ------- 1 0.0 1.0 71 81
r 0.17936 0 1 exp 100 ------- 1 0.0 1.0 72 82
r 0.179771 0 1 exp 100 ------- 1 0.0 1.0 73 83
r 0.180305 0 1 exp 100 ------- 1 0.0 1.0 74 84
r 0.180838 0 1 exp 100 ------- 1 0.0 1.0 75 85
r 0.181371 0 1 exp 100 ------- 1 0.0 1.0 76 86
r 0.181905 0 1 exp 100 ------- 1 0.0 1.0 77 87
r 0.182438 0 1 exp 100 ------- 1 0.0 1.0 78 88
r 0.182971 0 1 exp 100 ------- 1 0.0 1.0 79 89
r 0.183505 0 1 exp 100 ------- 1 0.0 1.0 80 90
r 0.184038 0 1 exp 100 ------- 1 0.0 1.0 81 91
r 0.184571 0 1 exp 100 ------- 1 0.0 1.0 82 92
r 0.18464 1 0 ack 40 ------- 2 1.1 0.1 1 93
+ 0.18464 0 1 tcp 1040 ------- 2 0.1 1.1 3 119
- 0.18464 0 1 tcp 1040 ------- 2 0.1 1.1 3 119
+ 0.18464 0 1 tcp 1040 ------- 2 0.1 1.1 4 120
r 0.185105 0 1 exp 100 ------- 1 0.0 1.0 83 94
r 0.185638 0 1 exp 100 ------- 1 0.0 1.0 84 95
r 0.186171 0 1 exp 100 ------- 1 0.0 1.0 85 96
r 0.186705 0 1 exp 100 ------- 1 0.0 1.0 86 97
r 0.187238 0 1 exp 100 ------- 1 0.0 1.0 87 98
+ 0.187304 0 1 exp 100 ------- 1 0.0 1.0 105 121
r 0.187771 0 1 exp 100 ------- 1 0.0 1.0 88 99
+ 0.187837 0 1 exp 100 ------- 1 0.0 1.0 106 122
r 0.188305 0 1 exp 100 ------- 1 0.0 1.0 89 100
+ 0.188371 0 1 exp 100 ------- 1 0.0 1.0 107 123
r 0.1888 1 0 ack 40 ------- 2 1.1 0.1 2 102
+ 0.1888 0 1 tcp 1040 ------- 2 0.1 1.1 5 124
+ 0.1888 0 1 tcp 1040 ------- 2 0.1 1.1 6 125
- 0.1888 0 1 tcp 1040 ------- 2 0.1 1.1 4 120
r 0.188838 0 1 exp 100 ------- 1 0.0 1.0 90 101
+ 0.188904 0 1 exp 100 ------- 1 0.0 1.0 108 126
r 0.189371 0 1 exp 100 ------- 1 0.0 1.0 91 103
+ 0.189437 0 1 exp 100 ------- 1 0.0 1.0 109 127
r 0.189905 0 1 exp 100 ------- 1 0.0 1.0 92 104
+ 0.189971 0 1 exp 100 ------- 1 0.0 1.0 110 128
r 0.190438 0 1 exp 100 ------- 1 0.0 1.0 93 105
+ 0.190504 0 1 exp 100 ------- 1 0.0 1.0 111 129
r 0.190971 0 1 exp 100 ------- 1 0.0 1.0 94 106
+ 0.191037 0 1 exp 100 ------- 1 0.0 1.0 112 130
r 0.191505 0 1 exp 100 ------- 1 0.0 1.0 95 107
r 0.192038 0 1 exp 100 ------- 1 0.0 1.0 96 108
r 0.192571 0 1 exp 100 ------- 1 0.0 1.0 97 109
- 0.19296 0 1 exp 100 ------- 1 0.0 1.0 105 121
r 0.193105 0 1 exp 100 ------- 1 0.0 1.0 98 110
r 0.19336 1 0 ack 40 ------- 3 1.2 0.2 1 111
- 0.19336 0 1 exp 100 ------- 1 0.0 1.0 106 122
r 0.193638 0 1 exp 100 ------- 1 0.0 1.0 99 112
- 0.19376 0 1 exp 100 ------- 1 0.0 1.0 107 123
- 0.19416 0 1 tcp 1040 ------- 2 0.1 1.1 5 124
r 0.194171 0 1 exp 100 ------- 1 0.0 1.0 100 113
r 0.194705 0 1 exp 100 ------- 1 0.0 1.0 101 114
r 0.195238 0 1 exp 100 ------- 1 0.0 1.0 102 115
r 0.195771 0 1 exp 100 ------- 1 0.0 1.0 103 116
+ 0.195865 0 1 exp 100 ------- 1 0.0 1.0 113 131
r 0.196305 0 1 exp 100 ------- 1 0.0 1.0 104 117
+ 0.196398 0 1 exp 100 ------- 1 0.0 1.0 114 132
+ 0.196932 0 1 exp 100 ------- 1 0.0 1.0 115 133
r 0.19752 1 0 ack 40 ------- 4 1.3 0.3 1 118
- 0.19832 0 1 tcp 1040 ------- 2 0.1 1.1 6 125
+ 0.2 0 1 tcp 1040 ------- 3 0.2 1.2 2 134
- 0.20248 0 1 exp 100 ------- 1 0.0 1.0 108 126
- 0.20288 0 1 exp 100 ------- 1 0.0 1.0 109 127
- 0.20328 0 1 exp 100 ------- 1 0.0 1.0 110 128
- 0.20368 0 1 exp 100 ------- 1 0.0 1.0 111 129
- 0.20408 0 1 exp 100 ------- 1 0.0 1.0 112 130
- 0.20448 0 1 exp 100 ------- 1 0.0 1.0 113 131
- 0.20488 0 1 exp 100 ------- 1 0.0 1.0 114 132
- 0.20528 0 1 exp 100 ------- 1 0.0 1.0 115 133
- 0.20568 0 1 tcp 1040 ------- 3 0.2 1.2 2 134
r 0.2088 0 1 tcp 1040 ------- 2 0.1 1.1 3 119
+ 0.2088 1 0 ack 40 ------- 2 1.1 0.1 3 135
- 0.2088 1 0 ack 40 ------- 2 1.1 0.1 3 135
+ 0.20928 0 1 exp 100 ------- 1 0.0 1.0 116 136
+ 0.209813 0 1 exp 100 ------- 1 0.0 1.0 117 137
- 0.20984 0 1 exp 100 ------- 1 0.0 1.0 116 136
- 0.21024 0 1 exp 100 ------- 1 0.0 1.0 117 137
+ 0.210346 0 1 exp 100 ------- 1 0.0 1.0 118 138
- 0.21064 0 1 exp 100 ------- 1 0.0 1.0 118 138
+ 0.21088 0 1 exp 100 ------- 1 0.0 1.0 119 139
- 0.21104 0 1 exp 100 ------- 1 0.0 1.0 119 139
+ 0.211413 0 1 exp 100 ------- 1 0.0 1.0 120 140
- 0.21144 0 1 exp 100 ------- 1 0.0 1.0 120 140
+ 0.211946 0 1 exp 100 ------- 1 0.0 1.0 121 141
- 0.211946 0 1 exp 100 ------- 1 0.0 1.0 121 141
+ 0.21248 0 1 exp 100 ------- 1 0.0 1.0 122 142
- 0.21248 0 1 exp 100 ------- 1 0.0 1.0 122 142
r 0.21296 0 1 tcp 1040 ------- 2 0.1 1.1 4 120
+ 0.21296 1 0 ack 40 ------- 2 1.1 0.1 4 143
- 0.21296 1 0 ack 40 ------- 2 1.1 0.1 4 143
+ 0.213013 0 1 exp 100 ------- 1 0.0 1.0 123 144
- 0.213013 0 1 exp 100 ------- 1 0.0 1.0 123 144
r 0.21336 0 1 exp 100 ------- 1 0.0 1.0 105 121
+ 0.213546 0 1 exp 100 ------- 1 0.0 1.0 124 145
- 0.213546 0 1 exp 100 ------- 1 0.0 1.0 124 145
r 0.21376 0 1 exp 100 ------- 1 0.0 1.0 106 122
+ 0.21408 0 1 exp 100 ------- 1 0.0 1.0 125 146
- 0.21408 0 1 exp 100 ------- 1 0.0 1.0 125 146
r 0.21416 0 1 exp 100 ------- 1 0.0 1.0 107 123
+ 0.214613 0 1 exp 100 ------- 1 0.0 1.0 126 147
- 0.214613 0 1 exp 100 ------- 1 0.0 1.0 126 147
+ 0.215146 0 1 exp 100 ------- 1 0.0 1.0 127 148
- 0.215146 0 1 exp 100 ------- 1 0.0 1.0 127 148
+ 0.21568 0 1 exp 100 ------- 1 0.0 1.0 128 149
- 0.21568 0 1 exp 100 ------- 1 0.0 1.0 128 149
+ 0.216213 0 1 exp 100 ------- 1 0.0 1.0 129 150
- 0.216213 0 1 exp 100 ------- 1 0.0 1.0 129 150
+ 0.216746 0 1 exp 100 ------- 1 0.0 1.0 130 151
- 0.216746 0 1 exp 100 ------- 1 0.0 1.0 130 151
+ 0.21728 0 1 exp 100 ------- 1 0.0 1.0 131 152
- 0.21728 0 1 exp 100 ------- 1 0.0 1.0 131 152
+ 0.217813 0 1 exp 100 ------- 1 0.0 1.0 132 153
- 0.217813 0 1 exp 100 ------- 1 0.0 1.0 132 153
r 0.21832 0 1 tcp 1040 ------- 2 0.1 1.1 5 124
+ 0.21832 1 0 ack 40 ------- 2 1.1 0.1 5 154
- 0.21832 1 0 ack 40 ------- 2 1.1 0.1 5 154
+ 0.218346 0 1 exp 100 ------- 1 0.0 1.0 133 155
- 0.218346 0 1 exp 100 ------- 1 0.0 1.0 133 155
+ 0.21888 0 1 exp 100 ------- 1 0.0 1.0 134 156
- 0.21888 0 1 exp 100 ------- 1 0.0 1.0 134 156
+ 0.219413 0 1 exp 100 ------- 1 0.0 1.0 135 157
- 0.219413 0 1 exp 100 ------- 1 0.0 1.0 135 157
+ 0.219946 0 1 exp 100 ------- 1 0.0 1.0 136 158
- 0.219946 0 1 exp 100 ------- 1 0.0 1.0 136 158
+ 0.22048 0 1 exp 100 ------- 1 0.0 1.0 137 159
- 0.22048 0 1 exp 100 ------- 1 0.0 1.0 137 159
+ 0.221013 0 1 exp 100 ------- 1 0.0 1.0 138 160
- 0.221013 0 1 exp 100 ------- 1 0.0 1.0 138 160
+ 0.221546 0 1 exp 100 ------- 1 0.0 1.0 139 161
- 0.221546 0 1 exp 100 ------- 1 0.0 1.0 139 161
+ 0.22208 0 1 exp 100 ------- 1 0.0 1.0 140 162
- 0.22208 0 1 exp 100 ------- 1 0.0 1.0 140 162
r 0.22248 0 1 tcp 1040 ------- 2 0.1 1.1 6 125
+ 0.22248 1 0 ack 40 ------- 2 1.1 0.1 6 163
- 0.22248 1 0 ack 40 ------- 2 1.1 0.1 6 163
+ 0.222613 0 1 exp 100 ------- 1 0.0 1.0 141 164
- 0.222613 0 1 exp 100 ------- 1 0.0 1.0 141 164
r 0.22288 0 1 exp 100 ------- 1 0.0 1.0 108 126
+ 0.223146 0 1 exp 100 ------- 1 0.0 1.0 142 165
- 0.223146 0 1 exp 100 ------- 1 0.0 1.0 142 165
r 0.22328 0 1 exp 100 ------- 1 0.0 1.0 109 127
+ 0.22368 0 1 exp 100 ------- 1 0.0 1.0 143 166
- 0.22368 0 1 exp 100 ------- 1 0.0 1.0 143 166
r 0.22368 0 1 exp 100 ------- 1 0.0 1.0 110 128
r 0.22408 0 1 exp 100 ------- 1 0.0 1.0 111 129
+ 0.224213 0 1 exp 100 ------- 1 0.0 1.0 144 167
- 0.224213 0 1 exp 100 ------- 1 0.0 1.0 144 167
r 0.22448 0 1 exp 100 ------- 1 0.0 1.0 112 130
+ 0.224746 0 1 exp 100 ------- 1 0.0 1.0 145 168
- 0.224746 0 1 exp 100 ------- 1 0.0 1.0 145 168
r 0.22488 0 1 exp 100 ------- 1 0.0 1.0 113 131
+ 0.22528 0 1 exp 100 ------- 1 0.0 1.0 146 169
- 0.22528 0 1 exp 100 ------- 1 0.0 1.0 146 169
r 0.22528 0 1 exp 100 ------- 1 0.0 1.0 114 132
r 0.22568 0 1 exp 100 ------- 1 0.0 1.0 115 133
+ 0.225813 0 1 exp 100 ------- 1 0.0 1.0 147 170
- 0.225813 0 1 exp 100 ------- 1 0.0 1.0 147 170
+ 0.226346 0 1 exp 100 ------- 1 0.0 1.0 148 171
- 0.226346 0 1 exp 100 ------- 1 0.0 1.0 148 171
r 0.22896 1 0 ack 40 ------- 2 1.1 0.1 3 135
+ 0.22896 0 1 tcp 1040 ------- 2 0.1 1.1 7 172
- 0.22896 0 1 tcp 1040 ------- 2 0.1 1.1 7 172
+ 0.22896 0 1 tcp 1040 ------- 2 0.1 1.1 8 173
r 0.22984 0 1 tcp 1040 ------- 3 0.2 1.2 2 134
+ 0.22984 1 0 ack 40 ------- 3 1.2 0.2 2 174
- 0.22984 1 0 ack 40 ------- 3 1.2 0.2 2 174
r 0.23024 0 1 exp 100 ------- 1 0.0 1.0 116 136
r 0.23064 0 1 exp 100 ------- 1 0.0 1.0 117 137
r 0.23104 0 1 exp 100 ------- 1 0.0 1.0 118 138
r 0.23144 0 1 exp 100 ------- 1 0.0 1.0 119 139
r 0.23184 0 1 exp 100 ------- 1 0.0 1.0 120 140
+ 0.232147 0 1 exp 100 ------- 1 0.0 1.0 149 175
r 0.232346 0 1 exp 100 ------- 1 0.0 1.0 121 141
+ 0.23268 0 1 exp 100 ------- 1 0.0 1.0 150 176
r 0.23288 0 1 exp 100 ------- 1 0.0 1.0 122 142
r 0.23312 1 0 ack 40 ------- 2 1.1 0.1 4 143
+ 0.23312 0 1 tcp 1040 ------- 2 0.1 1.1 9 177
+ 0.23312 0 1 tcp 1040 ------- 2 0.1 1.1 10 178
- 0.23312 0 1 tcp 1040 ------- 2 0.1 1.1 8 173
+ 0.233214 0 1 exp 100 ------- 1 0.0 1.0 151 179
r 0.233413 0 1 exp 100 ------- 1 0.0 1.0 123 144
+ 0.233747 0 1 exp 100 ------- 1 0.0 1.0 152 180
r 0.233946 0 1 exp 100 ------- 1 0.0 1.0 124 145
r 0.23448 0 1 exp 100 ------- 1 0.0 1.0 125 146
r 0.235013 0 1 exp 100 ------- 1 0.0 1.0 126 147
r 0.235546 0 1 exp 100 ------- 1 0.0 1.0 127 148
r 0.23608 0 1 exp 100 ------- 1 0.0 1.0 128 149
r 0.236613 0 1 exp 100 ------- 1 0.0 1.0 129 150
r 0.237146 0 1 exp 100 ------- 1 0.0 1.0 130 151
- 0.23728 0 1 exp 100 ------- 1 0.0 1.0 149 175
r 0.23768 0 1 exp 100 ------- 1 0.0 1.0 131 152
- 0.23768 0 1 exp 100 ------- 1 0.0 1.0 150 176
- 0.23808 0 1 tcp 1040 ------- 2 0.1 1.1 9 177
r 0.238213 0 1 exp 100 ------- 1 0.0 1.0 132 153
r 0.23848 1 0 ack 40 ------- 2 1.1 0.1 5 154
+ 0.23848 0 1 tcp 1040 ------- 2 0.1 1.1 11 181
+ 0.23848 0 1 tcp 1040 ------- 2 0.1 1.1 12 182
r 0.238746 0 1 exp 100 ------- 1 0.0 1.0 133 155
+ 0.238754 0 1 exp 100 ------- 1 0.0 1.0 153 183
r 0.23928 0 1 exp 100 ------- 1 0.0 1.0 134 156
+ 0.239288 0 1 exp 100 ------- 1 0.0 1.0 154 184
r 0.239813 0 1 exp 100 ------- 1 0.0 1.0 135 157
+ 0.239821 0 1 exp 100 ------- 1 0.0 1.0 155 185
r 0.240346 0 1 exp 100 ------- 1 0.0 1.0 136 158
+ 0.240354 0 1 exp 100 ------- 1 0.0 1.0 156 186
r 0.24088 0 1 exp 100 ------- 1 0.0 1.0 137 159
+ 0.240888 0 1 exp 100 ------- 1 0.0 1.0 157 187
r 0.241413 0 1 exp 100 ------- 1 0.0 1.0 138 160
+ 0.241421 0 1 exp 100 ------- 1 0.0 1.0 158 188
r 0.241946 0 1 exp 100 ------- 1 0.0 1.0 139 161
+ 0.241954 0 1 exp 100 ------- 1 0.0 1.0 159 189
- 0.24224 0 1 tcp 1040 ------- 2 0.1 1.1 10 178
r 0.24248 0 1 exp 100 ------- 1 0.0 1.0 140 162
+ 0.242488 0 1 exp 100 ------- 1 0.0 1.0 160 190
r 0.24264 1 0 ack 40 ------- 2 1.1 0.1 6 163
+ 0.24264 0 1 tcp 1040 ------- 2 0.1 1.1 13 191
+ 0.24264 0 1 tcp 1040 ------- 2 0.1 1.1 14 192
r 0.243013 0 1 exp 100 ------- 1 0.0 1.0 141 164
+ 0.243021 0 1 exp 100 ------- 1 0.0 1.0 161 193
r 0.243546 0 1 exp 100 ------- 1 0.0 1.0 142 165
+ 0.243554 0 1 exp 100 ------- 1 0.0 1.0 162 194
r 0.24408 0 1 exp 100 ------- 1 0.0 1.0 143 166
+ 0.244088 0 1 exp 100 ------- 1 0.0 1.0 163 195
r 0.244613 0 1 exp 100 ------- 1 0.0 1.0 144 167
+ 0.244621 0 1 exp 100 ------- 1 0.0 1.0 164 196
r 0.245146 0 1 exp 100 ------- 1 0.0 1.0 145 168
+ 0.245154 0 1 exp 100 ------- 1 0.0 1.0 165 197
r 0.24568 0 1 exp 100 ------- 1 0.0 1.0 146 169
+ 0.245688 0 1 exp 100 ------- 1 0.0 1.0 166 198
r 0.246213 0 1 exp 100 ------- 1 0.0 1.0 147 170
+ 0.246221 0 1 exp 100 ------- 1 0.0 1.0 167 199
- 0.2464 0 1 exp 100 ------- 1 0.0 1.0 151 179
r 0.246746 0 1 exp 100 ------- 1 0.0 1.0 148 171
+ 0.246754 0 1 exp 100 ------- 1 0.0 1.0 168 200
- 0.2468 0 1 exp 100 ------- 1 0.0 1.0 152 180
- 0.2472 0 1 tcp 1040 ------- 2 0.1 1.1 11 181
+ 0.247288 0 1 exp 100 ------- 1 0.0 1.0 169 201
+ 0.247821 0 1 exp 100 ------- 1 0.0 1.0 170 202
+ 0.248354 0 1 exp 100 ------- 1 0.0 1.0 171 203
+ 0.248888 0 1 exp 100 ------- 1 0.0 1.0 172 204
+ 0.249421 0 1 exp 100 ------- 1 0.0 1.0 173 205
+ 0.249954 0 1 exp 100 ------- 1 0.0 1.0 174 206
+ 0.25 0 1 tcp 1040 ------- 4 0.3 1.3 2 207
r 0.25 1 0 ack 40 ------- 3 1.2 0.2 2 174
+ 0.250488 0 1 exp 100 ------- 1 0.0 1.0 175 208
+ 0.251021 0 1 exp 100 ------- 1 0.0 1.0 176 209
- 0.25136 0 1 tcp 1040 ------- 2 0.1 1.1 12 182
+ 0.251554 0 1 exp 100 ------- 1 0.0 1.0 177 210
r 0.25312 0 1 tcp 1040 ------- 2 0.1 1.1 7 172
+ 0.25312 1 0 ack 40 ------- 2 1.1 0.1 7 211
- 0.25312 1 0 ack 40 ------- 2 1.1 0.1 7 211
- 0.25552 0 1 exp 100 ------- 1 0.0 1.0 153 183
+ 0.255904 0 1 exp 100 ------- 1 0.0 1.0 178 212
- 0.25592 0 1 exp 100 ------- 1 0.0 1.0 154 184
- 0.25632 0 1 exp 100 ------- 1 0.0 1.0 155 185
+ 0.256438 0 1 exp 100 ------- 1 0.0 1.0 179 213
- 0.25672 0 1 exp 100 ------- 1 0.0 1.0 156 186
+ 0.256971 0 1 exp 100 ------- 1 0.0 1.0 180 214
- 0.25712 0 1 exp 100 ------- 1 0.0 1.0 157 187
r 0.25728 0 1 tcp 1040 ------- 2 0.1 1.1 8 173
+ 0.25728 1 0 ack 40 ------- 2 1.1 0.1 8 215
- 0.25728 1 0 ack 40 ------- 2 1.1 0.1 8 215
+ 0.257504 0 1 exp 100 ------- 1 0.0 1.0 181 216
- 0.25752 0 1 exp 100 ------- 1 0.0 1.0 158 188
r 0.25768 0 1 exp 100 ------- 1 0.0 1.0 149 175
- 0.25792 0 1 exp 100 ------- 1 0.0 1.0 159 189
+ 0.258038 0 1 exp 100 ------- 1 0.0 1.0 182 217
r 0.25808 0 1 exp 100 ------- 1 0.0 1.0 150 176
- 0.25832 0 1 exp 100 ------- 1 0.0 1.0 160 190
+ 0.258571 0 1 exp 100 ------- 1 0.0 1.0 183 218
- 0.25872 0 1 tcp 1040 ------- 2 0.1 1.1 13 191
+ 0.259104 0 1 exp 100 ------- 1 0.0 1.0 184 219
+ 0.259638 0 1 exp 100 ------- 1 0.0 1.0 185 220
+ 0.260171 0 1 exp 100 ------- 1 0.0 1.0 186 221
+ 0.260704 0 1 exp 100 ------- 1 0.0 1.0 187 222
+ 0.261238 0 1 exp 100 ------- 1 0.0 1.0 188 223
+ 0.261771 0 1 exp 100 ------- 1 0.0 1.0 189 224
r 0.26224 0 1 tcp 1040 ------- 2 0.1 1.1 9 177
+ 0.26224 1 0 ack 40 ------- 2 1.1 0.1 9 225
- 0.26224 1 0 ack 40 ------- 2 1.1 0.1 9 225
- 0.26288 0 1 tcp 1040 ------- 2 0.1 1.1 14 192
+ 0.263046 0 1 exp 100 ------- 1 0.0 1.0 190 226
+ 0.26358 0 1 exp 100 ------- 1 0.0 1.0 191 227
+ 0.264113 0 1 exp 100 ------- 1 0.0 1.0 192 228
+ 0.264646 0 1 exp 100 ------- 1 0.0 1.0 193 229
+ 0.26518 0 1 exp 100 ------- 1 0.0 1.0 194 230
+ 0.265713 0 1 exp 100 ------- 1 0.0 1.0 195 231
+ 0.266246 0 1 exp 100 ------- 1 0.0 1.0 196 232
r 0.2664 0 1 tcp 1040 ------- 2 0.1 1.1 10 178
+ 0.2664 1 0 ack 40 ------- 2 1.1 0.1 10 233
- 0.2664 1 0 ack 40 ------- 2 1.1 0.1 10 233
r 0.2668 0 1 exp 100 ------- 1 0.0 1.0 151 179
- 0.26704 0 1 exp 100 ------- 1 0.0 1.0 161 193
r 0.2672 0 1 exp 100 ------- 1 0.0 1.0 152 180
- 0.26744 0 1 exp 100 ------- 1 0.0 1.0 162 194
- 0.26784 0 1 exp 100 ------- 1 0.0 1.0 163 195
- 0.26824 0 1 exp 100 ------- 1 0.0 1.0 164 196
- 0.26864 0 1 exp 100 ------- 1 0.0 1.0 165 197
- 0.26904 0 1 exp 100 ------- 1 0.0 1.0 166 198
- 0.26944 0 1 exp 100 ------- 1 0.0 1.0 167 199
- 0.26984 0 1 exp 100 ------- 1 0.0 1.0 168 200
- 0.27024 0 1 exp 100 ------- 1 0.0 1.0 169 201
- 0.27064 0 1 exp 100 ------- 1 0.0 1.0 170 202
- 0.27104 0 1 exp 100 ------- 1 0.0 1.0 171 203
r 0.27136 0 1 tcp 1040 ------- 2 0.1 1.1 11 181
+ 0.27136 1 0 ack 40 ------- 2 1.1 0.1 11 234
- 0.27136 1 0 ack 40 ------- 2 1.1 0.1 11 234
- 0.27144 0 1 exp 100 ------- 1 0.0 1.0 172 204
- 0.27184 0 1 exp 100 ------- 1 0.0 1.0 173 205
- 0.27224 0 1 exp 100 ------- 1 0.0 1.0 174 206
- 0.27264 0 1 tcp 1040 ------- 4 0.3 1.3 2 207
r 0.27328 1 0 ack 40 ------- 2 1.1 0.1 7 211
+ 0.27328 0 1 tcp 1040 ------- 2 0.1 1.1 15 235
+ 0.27328 0 1 tcp 1040 ------- 2 0.1 1.1 16 236
+ 0.274415 0 1 exp 100 ------- 1 0.0 1.0 197 237
+ 0.274949 0 1 exp 100 ------- 1 0.0 1.0 198 238