+ 0.1 0 1 tcp 40 ------- 2 0.1 1.1 0 0
- 0.1 0 1 tcp 40 ------- 2 0.1 1.1 0 0
+ 0.1 0 1 tcp 40 ------- 3 0.2 1.2 0 1
+ 0.1 0 1 tcp 40 ------- 4 0.3 1.3 0 2
- 0.10016 0 1 tcp 40 ------- 3 0.2 1.2 0 1
- 0.10032 0 1 tcp 40 ------- 4 0.3 1.3 0 2
+ 0.102134 0 1 exp 210 ------- 1 0.0 1.0 0 3
- 0.102134 0 1 exp 210 ------- 1 0.0 1.0 0 3
+ 0.103254 0 1 exp 210 ------- 1 0.0 1.0 1 4
- 0.103254 0 1 exp 210 ------- 1 0.0 1.0 1 4
+ 0.104374 0 1 exp 210 ------- 1 0.0 1.0 2 5
- 0.104374 0 1 exp 210 ------- 1 0.0 1.0 2 5
+ 0.105494 0 1 exp 210 ------- 1 0.0 1.0 3 6
- 0.105494 0 1 exp 210 ------- 1 0.0 1.0 3 6
+ 0.106614 0 1 exp 210 ------- 1 0.0 1.0 4 7
- 0.106614 0 1 exp 210 ------- 1 0.0 1.0 4 7
+ 0.107734 0 1 exp 210 ------- 1 0.0 1.0 5 8
- 0.107734 0 1 exp 210 ------- 1 0.0 1.0 5 8
+ 0.108854 0 1 exp 210 ------- 1 0.0 1.0 6 9
- 0.108854 0 1 exp 210 ------- 1 0.0 1.0 6 9
+ 0.109974 0 1 exp 210 ------- 1 0.0 1.0 7 10
- 0.109974 0 1 exp 210 ------- 1 0.0 1.0 7 10
+ 0.111094 0 1 exp 210 ------- 1 0.0 1.0 8 11
- 0.111094 0 1 exp 210 ------- 1 0.0 1.0 8 11
+ 0.112214 0 1 exp 210 ------- 1 0.0 1.0 9 12
- 0.112214 0 1 exp 210 ------- 1 0.0 1.0 9 12
+ 0.115574 0 1 exp 210 ------- 1 0.0 1.0 10 13
- 0.115574 0 1 exp 210 ------- 1 0.0 1.0 10 13
+ 0.116694 0 1 exp 210 ------- 1 0.0 1.0 11 14
- 0.116694 0 1 exp 210 ------- 1 0.0 1.0 11 14
+ 0.117814 0 1 exp 210 ------- 1 0.0 1.0 12 15
- 0.117814 0 1 exp 210 ------- 1 0.0 1.0 12 15
+ 0.118934 0 1 exp 210 ------- 1 0.0 1.0 13 16
- 0.118934 0 1 exp 210 ------- 1 0.0 1.0 13 16
+ 0.120054 0 1 exp 210 ------- 1 0.0 1.0 14 17
- 0.120054 0 1 exp 210 ------- 1 0.0 1.0 14 17
r 0.12016 0 1 tcp 40 ------- 2 0.1 1.1 0 0
+ 0.12016 1 0 ack 40 ------- 2 1.1 0.1 0 18
- 0.12016 1 0 ack 40 ------- 2 1.1 0.1 0 18
r 0.12032 0 1 tcp 40 ------- 3 0.2 1.2 0 1
+ 0.12032 1 0 ack 40 ------- 3 1.2 0.2 0 19
- 0.12032 1 0 ack 40 ------- 3 1.2 0.2 0 19
r 0.12048 0 1 tcp 40 ------- 4 0.3 1.3 0 2
+ 0.12048 1 0 ack 40 ------- 4 1.3 0.3 0 20
- 0.12048 1 0 ack 40 ------- 4 1.3 0.3 0 20
+ 0.121174 0 1 exp 210 ------- 1 0.0 1.0 15 21
- 0.121174 0 1 exp 210 ------- 1 0.0 1.0 15 21
+ 0.122294 0 1 exp 210 ------- 1 0.0 1.0 16 22
- 0.122294 0 1 exp 210 ------- 1 0.0 1.0 16 22
r 0.122974 0 1 exp 210 ------- 1 0.0 1.0 0 3
+ 0.123414 0 1 exp 210 ------- 1 0.0 1.0 17 23
- 0.123414 0 1 exp 210 ------- 1 0.0 1.0 17 23
r 0.124094 0 1 exp 210 ------- 1 0.0 1.0 1 4
+ 0.124534 0 1 exp 210 ------- 1 0.0 1.0 18 24
- 0.124534 0 1 exp 210 ------- 1 0.0 1.0 18 24
r 0.125214 0 1 exp 210 ------- 1 0.0 1.0 2 5
+ 0.125654 0 1 exp 210 ------- 1 0.0 1.0 19 25
- 0.125654 0 1 exp 210 ------- 1 0.0 1.0 19 25
r 0.126334 0 1 exp 210 ------- 1 0.0 1.0 3 6
+ 0.126774 0 1 exp 210 ------- 1 0.0 1.0 20 26
- 0.126774 0 1 exp 210 ------- 1 0.0 1.0 20 26
r 0.127454 0 1 exp 210 ------- 1 0.0 1.0 4 7
+ 0.127894 0 1 exp 210 ------- 1 0.0 1.0 21 27
- 0.127894 0 1 exp 210 ------- 1 0.0 1.0 21 27
r 0.128574 0 1 exp 210 ------- 1 0.0 1.0 5 8
+ 0.129014 0 1 exp 210 ------- 1 0.0 1.0 22 28
- 0.129014 0 1 exp 210 ------- 1 0.0 1.0 22 28
r 0.129694 0 1 exp 210 ------- 1 0.0 1.0 6 9
r 0.130814 0 1 exp 210 ------- 1 0.0 1.0 7 10
+ 0.131028 0 1 exp 210 ------- 1 0.0 1.0 23 29
- 0.131028 0 1 exp 210 ------- 1 0.0 1.0 23 29
r 0.131934 0 1 exp 210 ------- 1 0.0 1.0 8 11
+ 0.132148 0 1 exp 210 ------- 1 0.0 1.0 24 30
- 0.132148 0 1 exp 210 ------- 1 0.0 1.0 24 30
r 0.133054 0 1 exp 210 ------- 1 0.0 1.0 9 12
+ 0.133268 0 1 exp 210 ------- 1 0.0 1.0 25 31
- 0.133268 0 1 exp 210 ------- 1 0.0 1.0 25 31
+ 0.134388 0 1 exp 210 ------- 1 0.0 1.0 26 32
- 0.134388 0 1 exp 210 ------- 1 0.0 1.0 26 32
+ 0.135508 0 1 exp 210 ------- 1 0.0 1.0 27 33
- 0.135508 0 1 exp 210 ------- 1 0.0 1.0 27 33
r 0.136414 0 1 exp 210 ------- 1 0.0 1.0 10 13
+ 0.136628 0 1 exp 210 ------- 1 0.0 1.0 28 34
- 0.136628 0 1 exp 210 ------- 1 0.0 1.0 28 34
r 0.137534 0 1 exp 210 ------- 1 0.0 1.0 11 14
+ 0.137748 0 1 exp 210 ------- 1 0.0 1.0 29 35
- 0.137748 0 1 exp 210 ------- 1 0.0 1.0 29 35
r 0.138654 0 1 exp 210 ------- 1 0.0 1.0 12 15
+ 0.138868 0 1 exp 210 ------- 1 0.0 1.0 30 36
- 0.138868 0 1 exp 210 ------- 1 0.0 1.0 30 36
r 0.139774 0 1 exp 210 ------- 1 0.0 1.0 13 16
+ 0.139988 0 1 exp 210 ------- 1 0.0 1.0 31 37
- 0.139988 0 1 exp 210 ------- 1 0.0 1.0 31 37
r 0.14032 1 0 ack 40 ------- 2 1.1 0.1 0 18
+ 0.14032 0 1 tcp 1040 ------- 2 0.1 1.1 1 38
+ 0.14032 0 1 tcp 1040 ------- 2 0.1 1.1 2 39
r 0.14048 1 0 ack 40 ------- 3 1.2 0.2 0 19
+ 0.14048 0 1 tcp 1040 ------- 3 0.2 1.2 1 40
+ 0.14048 0 1 tcp 1040 ------- 3 0.2 1.2 2 41
r 0.14064 1 0 ack 40 ------- 4 1.3 0.3 0 20
+ 0.14064 0 1 tcp 1040 ------- 4 0.3 1.3 1 42
+ 0.14064 0 1 tcp 1040 ------- 4 0.3 1.3 2 43
- 0.140828 0 1 tcp 1040 ------- 2 0.1 1.1 1 38
r 0.140894 0 1 exp 210 ------- 1 0.0 1.0 14 17
+ 0.141108 0 1 exp 210 ------- 1 0.0 1.0 32 44
r 0.142014 0 1 exp 210 ------- 1 0.0 1.0 15 21
r 0.143134 0 1 exp 210 ------- 1 0.0 1.0 16 22
r 0.144254 0 1 exp 210 ------- 1 0.0 1.0 17 23
- 0.144988 0 1 tcp 1040 ------- 2 0.1 1.1 2 39
r 0.145374 0 1 exp 210 ------- 1 0.0 1.0 18 24
r 0.146494 0 1 exp 210 ------- 1 0.0 1.0 19 25
r 0.147614 0 1 exp 210 ------- 1 0.0 1.0 20 26
r 0.148734 0 1 exp 210 ------- 1 0.0 1.0 21 27
- 0.149148 0 1 tcp 1040 ------- 3 0.2 1.2 1 40
r 0.149854 0 1 exp 210 ------- 1 0.0 1.0 22 28
r 0.151868 0 1 exp 210 ------- 1 0.0 1.0 23 29
r 0.152988 0 1 exp 210 ------- 1 0.0 1.0 24 30
- 0.153308 0 1 tcp 1040 ------- 3 0.2 1.2 2 41
r 0.154108 0 1 exp 210 ------- 1 0.0 1.0 25 31
r 0.155228 0 1 exp 210 ------- 1 0.0 1.0 26 32
r 0.156348 0 1 exp 210 ------- 1 0.0 1.0 27 33
r 0.157468 0 1 exp 210 ------- 1 0.0 1.0 28 34
- 0.157468 0 1 tcp 1040 ------- 4 0.3 1.3 1 42
+ 0.157985 0 1 exp 210 ------- 1 0.0 1.0 33 45
r 0.158588 0 1 exp 210 ------- 1 0.0 1.0 29 35
+ 0.159105 0 1 exp 210 ------- 1 0.0 1.0 34 46
r 0.159708 0 1 exp 210 ------- 1 0.0 1.0 30 36
+ 0.160225 0 1 exp 210 ------- 1 0.0 1.0 35 47
r 0.160828 0 1 exp 210 ------- 1 0.0 1.0 31 37
+ 0.161345 0 1 exp 210 ------- 1 0.0 1.0 36 48
- 0.161628 0 1 tcp 1040 ------- 4 0.3 1.3 2 43
+ 0.162465 0 1 exp 210 ------- 1 0.0 1.0 37 49
+ 0.163585 0 1 exp 210 ------- 1 0.0 1.0 38 50
+ 0.164705 0 1 exp 210 ------- 1 0.0 1.0 39 51
r 0.164988 0 1 tcp 1040 ------- 2 0.1 1.1 1 38
+ 0.164988 1 0 ack 40 ------- 2 1.1 0.1 1 52
- 0.164988 1 0 ack 40 ------- 2 1.1 0.1 1 52
- 0.165788 0 1 exp 210 ------- 1 0.0 1.0 32 44
+ 0.165825 0 1 exp 210 ------- 1 0.0 1.0 40 53
- 0.166628 0 1 exp 210 ------- 1 0.0 1.0 33 45
+ 0.166945 0 1 exp 210 ------- 1 0.0 1.0 41 54
- 0.167468 0 1 exp 210 ------- 1 0.0 1.0 34 46
+ 0.168065 0 1 exp 210 ------- 1 0.0 1.0 42 55
- 0.168308 0 1 exp 210 ------- 1 0.0 1.0 35 47
r 0.169148 0 1 tcp 1040 ------- 2 0.1 1.1 2 39
+ 0.169148 1 0 ack 40 ------- 2 1.1 0.1 2 56
- 0.169148 1 0 ack 40 ------- 2 1.1 0.1 2 56
- 0.169148 0 1 exp 210 ------- 1 0.0 1.0 36 48
+ 0.169185 0 1 exp 210 ------- 1 0.0 1.0 43 57
- 0.169988 0 1 exp 210 ------- 1 0.0 1.0 37 49
+ 0.170305 0 1 exp 210 ------- 1 0.0 1.0 44 58
- 0.170828 0 1 exp 210 ------- 1 0.0 1.0 38 50
+ 0.171425 0 1 exp 210 ------- 1 0.0 1.0 45 59
- 0.171668 0 1 exp 210 ------- 1 0.0 1.0 39 51
- 0.172508 0 1 exp 210 ------- 1 0.0 1.0 40 53
+ 0.172545 0 1 exp 210 ------- 1 0.0 1.0 46 60
r 0.173308 0 1 tcp 1040 ------- 3 0.2 1.2 1 40
+ 0.173308 1 0 ack 40 ------- 3 1.2 0.2 1 61
- 0.173308 1 0 ack 40 ------- 3 1.2 0.2 1 61
- 0.173348 0 1 exp 210 ------- 1 0.0 1.0 41 54
+ 0.173665 0 1 exp 210 ------- 1 0.0 1.0 47 62
- 0.174188 0 1 exp 210 ------- 1 0.0 1.0 42 55
+ 0.174785 0 1 exp 210 ------- 1 0.0 1.0 48 63
- 0.175028 0 1 exp 210 ------- 1 0.0 1.0 43 57
- 0.175868 0 1 exp 210 ------- 1 0.0 1.0 44 58
- 0.176708 0 1 exp 210 ------- 1 0.0 1.0 45 59
r 0.177468 0 1 tcp 1040 ------- 3 0.2 1.2 2 41
+ 0.177468 1 0 ack 40 ------- 3 1.2 0.2 2 64
- 0.177468 1 0 ack 40 ------- 3 1.2 0.2 2 64
- 0.177548 0 1 exp 210 ------- 1 0.0 1.0 46 60
- 0.178388 0 1 exp 210 ------- 1 0.0 1.0 47 62
- 0.179228 0 1 exp 210 ------- 1 0.0 1.0 48 63
r 0.181628 0 1 tcp 1040 ------- 4 0.3 1.3 1 42
+ 0.181628 1 0 ack 40 ------- 4 1.3 0.3 1 65
- 0.181628 1 0 ack 40 ------- 4 1.3 0.3 1 65
r 0.185148 1 0 ack 40 ------- 2 1.1 0.1 1 52
+ 0.185148 0 1 tcp 1040 ------- 2 0.1 1.1 3 66
- 0.185148 0 1 tcp 1040 ------- 2 0.1 1.1 3 66
+ 0.185148 0 1 tcp 1040 ------- 2 0.1 1.1 4 67
r 0.185788 0 1 tcp 1040 ------- 4 0.3 1.3 2 43
+ 0.185788 1 0 ack 40 ------- 4 1.3 0.3 2 68
- 0.185788 1 0 ack 40 ------- 4 1.3 0.3 2 68
r 0.186628 0 1 exp 210 ------- 1 0.0 1.0 32 44
+ 0.186771 0 1 exp 210 ------- 1 0.0 1.0 49 69
r 0.187468 0 1 exp 210 ------- 1 0.0 1.0 33 45
+ 0.187891 0 1 exp 210 ------- 1 0.0 1.0 50 70
r 0.188308 0 1 exp 210 ------- 1 0.0 1.0 34 46
+ 0.189011 0 1 exp 210 ------- 1 0.0 1.0 51 71
r 0.189148 0 1 exp 210 ------- 1 0.0 1.0 35 47
r 0.189308 1 0 ack 40 ------- 2 1.1 0.1 2 56
+ 0.189308 0 1 tcp 1040 ------- 2 0.1 1.1 5 72
+ 0.189308 0 1 tcp 1040 ------- 2 0.1 1.1 6 73
- 0.189308 0 1 tcp 1040 ------- 2 0.1 1.1 4 67
r 0.189988 0 1 exp 210 ------- 1 0.0 1.0 36 48
+ 0.190131 0 1 exp 210 ------- 1 0.0 1.0 52 74
r 0.190828 0 1 exp 210 ------- 1 0.0 1.0 37 49
r 0.191668 0 1 exp 210 ------- 1 0.0 1.0 38 50
r 0.192508 0 1 exp 210 ------- 1 0.0 1.0 39 51
r 0.193348 0 1 exp 210 ------- 1 0.0 1.0 40 53
r 0.193468 1 0 ack 40 ------- 3 1.2 0.2 1 61
+ 0.193468 0 1 tcp 1040 ------- 3 0.2 1.2 3 75
+ 0.193468 0 1 tcp 1040 ------- 3 0.2 1.2 4 76
- 0.193468 0 1 exp 210 ------- 1 0.0 1.0 49 69
r 0.194188 0 1 exp 210 ------- 1 0.0 1.0 41 54
- 0.194308 0 1 exp 210 ------- 1 0.0 1.0 50 70
r 0.195028 0 1 exp 210 ------- 1 0.0 1.0 42 55
- 0.195148 0 1 exp 210 ------- 1 0.0 1.0 51 71
+ 0.195545 0 1 exp 210 ------- 1 0.0 1.0 53 77
r 0.195868 0 1 exp 210 ------- 1 0.0 1.0 43 57
- 0.195988 0 1 tcp 1040 ------- 2 0.1 1.1 5 72
r 0.196708 0 1 exp 210 ------- 1 0.0 1.0 44 58
r 0.197548 0 1 exp 210 ------- 1 0.0 1.0 45 59
r 0.197628 1 0 ack 40 ------- 3 1.2 0.2 2 64
+ 0.197628 0 1 tcp 1040 ------- 3 0.2 1.2 5 78
+ 0.197628 0 1 tcp 1040 ------- 3 0.2 1.2 6 79
r 0.198388 0 1 exp 210 ------- 1 0.0 1.0 46 60
r 0.199228 0 1 exp 210 ------- 1 0.0 1.0 47 62
r 0.200068 0 1 exp 210 ------- 1 0.0 1.0 48 63
- 0.200148 0 1 tcp 1040 ------- 2 0.1 1.1 6 73
r 0.201788 1 0 ack 40 ------- 4 1.3 0.3 1 65
+ 0.201788 0 1 tcp 1040 ------- 4 0.3 1.3 3 80
+ 0.201788 0 1 tcp 1040 ------- 4 0.3 1.3 4 81
- 0.204308 0 1 exp 210 ------- 1 0.0 1.0 52 74
- 0.205148 0 1 tcp 1040 ------- 3 0.2 1.2 3 75
r 0.205948 1 0 ack 40 ------- 4 1.3 0.3 2 68
+ 0.205948 0 1 tcp 1040 ------- 4 0.3 1.3 5 82
+ 0.205948 0 1 tcp 1040 ------- 4 0.3 1.3 6 83
+ 0.20848 0 1 exp 210 ------- 1 0.0 1.0 54 84
r 0.209308 0 1 tcp 1040 ------- 2 0.1 1.1 3 66
+ 0.209308 1 0 ack 40 ------- 2 1.1 0.1 3 85
- 0.209308 1 0 ack 40 ------- 2 1.1 0.1 3 85
- 0.209308 0 1 tcp 1040 ------- 3 0.2 1.2 4 76
+ 0.2096 0 1 exp 210 ------- 1 0.0 1.0 55 86
+ 0.21072 0 1 exp 210 ------- 1 0.0 1.0 56 87
+ 0.21184 0 1 exp 210 ------- 1 0.0 1.0 57 88
+ 0.21296 0 1 exp 210 ------- 1 0.0 1.0 58 89
r 0.213468 0 1 tcp 1040 ------- 2 0.1 1.1 4 67
+ 0.213468 1 0 ack 40 ------- 2 1.1 0.1 4 90
- 0.213468 1 0 ack 40 ------- 2 1.1 0.1 4 90
- 0.213468 0 1 exp 210 ------- 1 0.0 1.0 53 77
+ 0.21408 0 1 exp 210 ------- 1 0.0 1.0 59 91
r 0.214308 0 1 exp 210 ------- 1 0.0 1.0 49 69
- 0.214308 0 1 tcp 1040 ------- 3 0.2 1.2 5 78
r 0.215148 0 1 exp 210 ------- 1 0.0 1.0 50 70
+ 0.2152 0 1 exp 210 ------- 1 0.0 1.0 60 92
r 0.215988 0 1 exp 210 ------- 1 0.0 1.0 51 71
+ 0.21632 0 1 exp 210 ------- 1 0.0 1.0 61 93
+ 0.21744 0 1 exp 210 ------- 1 0.0 1.0 62 94
- 0.218468 0 1 tcp 1040 ------- 3 0.2 1.2 6 79
+ 0.21856 0 1 exp 210 ------- 1 0.0 1.0 63 95
+ 0.21968 0 1 exp 210 ------- 1 0.0 1.0 64 96
r 0.220148 0 1 tcp 1040 ------- 2 0.1 1.1 5 72
+ 0.220148 1 0 ack 40 ------- 2 1.1 0.1 5 97
- 0.220148 1 0 ack 40 ------- 2 1.1 0.1 5 97
+ 0.2208 0 1 exp 210 ------- 1 0.0 1.0 65 98
+ 0.22192 0 1 exp 210 ------- 1 0.0 1.0 66 99
- 0.222628 0 1 tcp 1040 ------- 4 0.3 1.3 3 80
+ 0.22304 0 1 exp 210 ------- 1 0.0 1.0 67 100
+ 0.22416 0 1 exp 210 ------- 1 0.0 1.0 68 101
r 0.224308 0 1 tcp 1040 ------- 2 0.1 1.1 6 73
+ 0.224308 1 0 ack 40 ------- 2 1.1 0.1 6 102
- 0.224308 1 0 ack 40 ------- 2 1.1 0.1 6 102
r 0.225148 0 1 exp 210 ------- 1 0.0 1.0 52 74
+ 0.22528 0 1 exp 210 ------- 1 0.0 1.0 69 103
- 0.226788 0 1 tcp 1040 ------- 4 0.3 1.3 4 81
r 0.229308 0 1 tcp 1040 ------- 3 0.2 1.2 3 75
+ 0.229308 1 0 ack 40 ------- 3 1.2 0.2 3 104
- 0.229308 1 0 ack 40 ------- 3 1.2 0.2 3 104
r 0.229468 1 0 ack 40 ------- 2 1.1 0.1 3 85
+ 0.229468 0 1 tcp 1040 ------- 2 0.1 1.1 7 105
+ 0.229468 0 1 tcp 1040 ------- 2 0.1 1.1 8 106
- 0.230948 0 1 tcp 1040 ------- 4 0.3 1.3 5 82
+ 0.231667 0 1 exp 210 ------- 1 0.0 1.0 70 107
+ 0.232787 0 1 exp 210 ------- 1 0.0 1.0 71 108
r 0.233468 0 1 tcp 1040 ------- 3 0.2 1.2 4 76
+ 0.233468 1 0 ack 40 ------- 3 1.2 0.2 4 109
- 0.233468 1 0 ack 40 ------- 3 1.2 0.2 4 109
r 0.233628 1 0 ack 40 ------- 2 1.1 0.1 4 90
+ 0.233628 0 1 tcp 1040 ------- 2 0.1 1.1 9 110
+ 0.233628 0 1 tcp 1040 ------- 2 0.1 1.1 10 111
r 0.234308 0 1 exp 210 ------- 1 0.0 1.0 53 77
- 0.235108 0 1 tcp 1040 ------- 4 0.3 1.3 6 83
+ 0.238381 0 1 exp 210 ------- 1 0.0 1.0 72 112
r 0.238468 0 1 tcp 1040 ------- 3 0.2 1.2 5 78
+ 0.238468 1 0 ack 40 ------- 3 1.2 0.2 5 113
- 0.238468 1 0 ack 40 ------- 3 1.2 0.2 5 113
- 0.239268 0 1 exp 210 ------- 1 0.0 1.0 54 84
+ 0.239501 0 1 exp 210 ------- 1 0.0 1.0 73 114
- 0.240108 0 1 exp 210 ------- 1 0.0 1.0 55 86
r 0.240308 1 0 ack 40 ------- 2 1.1 0.1 5 97
+ 0.240308 0 1 tcp 1040 ------- 2 0.1 1.1 11 115
+ 0.240308 0 1 tcp 1040 ------- 2 0.1 1.1 12 116
+ 0.240621 0 1 exp 210 ------- 1 0.0 1.0 74 117
- 0.240948 0 1 exp 210 ------- 1 0.0 1.0 56 87
+ 0.241741 0 1 exp 210 ------- 1 0.0 1.0 75 118
- 0.241788 0 1 exp 210 ------- 1 0.0 1.0 57 88
r 0.242628 0 1 tcp 1040 ------- 3 0.2 1.2 6 79
+ 0.242628 1 0 ack 40 ------- 3 1.2 0.2 6 119
- 0.242628 1 0 ack 40 ------- 3 1.2 0.2 6 119
- 0.242628 0 1 exp 210 ------- 1 0.0 1.0 58 89
+ 0.242861 0 1 exp 210 ------- 1 0.0 1.0 76 120
- 0.243468 0 1 exp 210 ------- 1 0.0 1.0 59 91
+ 0.243981 0 1 exp 210 ------- 1 0.0 1.0 77 121
- 0.244308 0 1 exp 210 ------- 1 0.0 1.0 60 92
r 0.244468 1 0 ack 40 ------- 2 1.1 0.1 6 102
+ 0.244468 0 1 tcp 1040 ------- 2 0.1 1.1 13 122
+ 0.244468 0 1 tcp 1040 ------- 2 0.1 1.1 14 123
+ 0.245101 0 1 exp 210 ------- 1 0.0 1.0 78 124
- 0.245148 0 1 exp 210 ------- 1 0.0 1.0 61 93
- 0.245988 0 1 exp 210 ------- 1 0.0 1.0 62 94
+ 0.246221 0 1 exp 210 ------- 1 0.0 1.0 79 125
r 0.246788 0 1 tcp 1040 ------- 4 0.3 1.3 3 80
+ 0.246788 1 0 ack 40 ------- 4 1.3 0.3 3 126
- 0.246788 1 0 ack 40 ------- 4 1.3 0.3 3 126
- 0.246828 0 1 exp 210 ------- 1 0.0 1.0 63 95
+ 0.247341 0 1 exp 210 ------- 1 0.0 1.0 80 127
- 0.247668 0 1 exp 210 ------- 1 0.0 1.0 64 96
+ 0.248461 0 1 exp 210 ------- 1 0.0 1.0 81 128
- 0.248508 0 1 exp 210 ------- 1 0.0 1.0 65 98
- 0.249348 0 1 exp 210 ------- 1 0.0 1.0 66 99
r 0.249468 1 0 ack 40 ------- 3 1.2 0.2 3 104
+ 0.249468 0 1 tcp 1040 ------- 3 0.2 1.2 7 129
+ 0.249468 0 1 tcp 1040 ------- 3 0.2 1.2 8 130
+ 0.249581 0 1 exp 210 ------- 1 0.0 1.0 82 131
- 0.250188 0 1 exp 210 ------- 1 0.0 1.0 67 100
+ 0.250701 0 1 exp 210 ------- 1 0.0 1.0 83 132
r 0.250948 0 1 tcp 1040 ------- 4 0.3 1.3 4 81
+ 0.250948 1 0 ack 40 ------- 4 1.3 0.3 4 133
- 0.250948 1 0 ack 40 ------- 4 1.3 0.3 4 133
- 0.251028 0 1 exp 210 ------- 1 0.0 1.0 68 101
- 0.251868 0 1 exp 210 ------- 1 0.0 1.0 69 103
- 0.252708 0 1 tcp 1040 ------- 2 0.1 1.1 7 105
r 0.253628 1 0 ack 40 ------- 3 1.2 0.2 4 109
+ 0.253628 0 1 tcp 1040 ------- 3 0.2 1.2 9 134
+ 0.253628 0 1 tcp 1040 ------- 3 0.2 1.2 10 135
r 0.255108 0 1 tcp 1040 ------- 4 0.3 1.3 5 82
+ 0.255108 1 0 ack 40 ------- 4 1.3 0.3 5 136
- 0.255108 1 0 ack 40 ------- 4 1.3 0.3 5 136
+ 0.255638 0 1 exp 210 ------- 1 0.0 1.0 84 137
+ 0.256758 0 1 exp 210 ------- 1 0.0 1.0 85 138
- 0.256868 0 1 tcp 1040 ------- 2 0.1 1.1 8 106
+ 0.257878 0 1 exp 210 ------- 1 0.0 1.0 86 139
r 0.258628 1 0 ack 40 ------- 3 1.2 0.2 5 113
+ 0.258628 0 1 tcp 1040 ------- 3 0.2 1.2 11 140
+ 0.258628 0 1 tcp 1040 ------- 3 0.2 1.2 12 141
+ 0.258998 0 1 exp 210 ------- 1 0.0 1.0 87 142
r 0.259268 0 1 tcp 1040 ------- 4 0.3 1.3 6 83
+ 0.259268 1 0 ack 40 ------- 4 1.3 0.3 6 143
- 0.259268 1 0 ack 40 ------- 4 1.3 0.3 6 143
r 0.260108 0 1 exp 210 ------- 1 0.0 1.0 54 84
+ 0.260118 0 1 exp 210 ------- 1 0.0 1.0 88 144
r 0.260948 0 1 exp 210 ------- 1 0.0 1.0 55 86
- 0.261028 0 1 exp 210 ------- 1 0.0 1.0 70 107
+ 0.261238 0 1 exp 210 ------- 1 0.0 1.0 89 145
r 0.261788 0 1 exp 210 ------- 1 0.0 1.0 56 87
- 0.261868 0 1 exp 210 ------- 1 0.0 1.0 71 108
r 0.262628 0 1 exp 210 ------- 1 0.0 1.0 57 88
- 0.262708 0 1 tcp 1040 ------- 2 0.1 1.1 9 110
r 0.262788 1 0 ack 40 ------- 3 1.2 0.2 6 119
+ 0.262788 0 1 tcp 1040 ------- 3 0.2 1.2 13 146
+ 0.262788 0 1 tcp 1040 ------- 3 0.2 1.2 14 147
+ 0.2631 0 1 exp 210 ------- 1 0.0 1.0 90 148
r 0.263468 0 1 exp 210 ------- 1 0.0 1.0 58 89
+ 0.26422 0 1 exp 210 ------- 1 0.0 1.0 91 149
r 0.264308 0 1 exp 210 ------- 1 0.0 1.0 59 91
r 0.265148 0 1 exp 210 ------- 1 0.0 1.0 60 92
+ 0.26534 0 1 exp 210 ------- 1 0.0 1.0 92 150
r 0.265988 0 1 exp 210 ------- 1 0.0 1.0 61 93
r 0.266828 0 1 exp 210 ------- 1 0.0 1.0 62 94
- 0.266868 0 1 tcp 1040 ------- 2 0.1 1.1 10 111
r 0.266948 1 0 ack 40 ------- 4 1.3 0.3 3 126
+ 0.266948 0 1 tcp 1040 ------- 4 0.3 1.3 7 151
+ 0.266948 0 1 tcp 1040 ------- 4 0.3 1.3 8 152
r 0.267668 0 1 exp 210 ------- 1 0.0 1.0 63 95
r 0.268508 0 1 exp 210 ------- 1 0.0 1.0 64 96
r 0.269348 0 1 exp 210 ------- 1 0.0 1.0 65 98
r 0.270188 0 1 exp 210 ------- 1 0.0 1.0 66 99
r 0.271028 0 1 exp 210 ------- 1 0.0 1.0 67 100
- 0.271028 0 1 exp 210 ------- 1 0.0 1.0 72 112
r 0.271108 1 0 ack 40 ------- 4 1.3 0.3 4 133
+ 0.271108 0 1 tcp 1040 ------- 4 0.3 1.3 9 153
+ 0.271108 0 1 tcp 1040 ------- 4 0.3 1.3 10 154
r 0.271868 0 1 exp 210 ------- 1 0.0 1.0 68 101
- 0.271868 0 1 exp 210 ------- 1 0.0 1.0 73 114
r 0.272708 0 1 exp 210 ------- 1 0.0 1.0 69 103
- 0.272708 0 1 tcp 1040 ------- 2 0.1 1.1 11 115
+ 0.274095 0 1 exp 210 ------- 1 0.0 1.0 93 155
+ 0.275215 0 1 exp 210 ------- 1 0.0 1.0 94 156
r 0.275268 1 0 ack 40 ------- 4 1.3 0.3 5 136
+ 0.275268 0 1 tcp 1040 ------- 4 0.3 1.3 11 157
+ 0.275268 0 1 tcp 1040 ------- 4 0.3 1.3 12 158
r 0.276868 0 1 tcp 1040 ------- 2 0.1 1.1 7 105
+ 0.276868 1 0 ack 40 ------- 2 1.1 0.1 7 159
- 0.276868 1 0 ack 40 ------- 2 1.1 0.1 7 159
- 0.276868 0 1 tcp 1040 ------- 2 0.1 1.1 12 116
+ 0.277141 0 1 exp 210 ------- 1 0.0 1.0 95 160
+ 0.278261 0 1 exp 210 ------- 1 0.0 1.0 96 161
+ 0.279381 0 1 exp 210 ------- 1 0.0 1.0 97 162
r 0.279428 1 0 ack 40 ------- 4 1.3 0.3 6 143
+ 0.279428 0 1 tcp 1040 ------- 4 0.3 1.3 13 163
+ 0.279428 0 1 tcp 1040 ------- 4 0.3 1.3 14 164
+ 0.280501 0 1 exp 210 ------- 1 0.0 1.0 98 165
r 0.281028 0 1 tcp 1040 ------- 2 0.1 1.1 8 106
+ 0.281028 1 0 ack 40 ------- 2 1.1 0.1 8 166
- 0.281028 1 0 ack 40 ------- 2 1.1 0.1 8 166
- 0.281028 0 1 exp 210 ------- 1 0.0 1.0 74 117
+ 0.281621 0 1 exp 210 ------- 1 0.0 1.0 99 167
r 0.281868 0 1 exp 210 ------- 1 0.0 1.0 70 107
- 0.281868 0 1 exp 210 ------- 1 0.0 1.0 75 118
r 0.282708 0 1 exp 210 ------- 1 0.0 1.0 71 108
- 0.282708 0 1 exp 210 ------- 1 0.0 1.0 76 120
+ 0.282741 0 1 exp 210 ------- 1 0.0 1.0 100 168
- 0.283548 0 1 exp 210 ------- 1 0.0 1.0 77 121
+ 0.283861 0 1 exp 210 ------- 1 0.0 1.0 101 169
- 0.284388 0 1 tcp 1040 ------- 2 0.1 1.1 13 122
+ 0.284981 0 1 exp 210 ------- 1 0.0 1.0 102 170
+ 0.286101 0 1 exp 210 ------- 1 0.0 1.0 103 171
r 0.286868 0 1 tcp 1040 ------- 2 0.1 1.1 9 110
+ 0.286868 1 0 ack 40 ------- 2 1.1 0.1 9 172
- 0.286868 1 0 ack 40 ------- 2 1.1 0.1 9 172
+ 0.287221 0 1 exp 210 ------- 1 0.0 1.0 104 173
+ 0.288341 0 1 exp 210 ------- 1 0.0 1.0 105 174
- 0.288548 0 1 tcp 1040 ------- 2 0.1 1.1 14 123
+ 0.289461 0 1 exp 210 ------- 1 0.0 1.0 106 175
+ 0.290581 0 1 exp 210 ------- 1 0.0 1.0 107 176
r 0.291028 0 1 tcp 1040 ------- 2 0.1 1.1 10 111
+ 0.291028 1 0 ack 40 ------- 2 1.1 0.1 10 177
- 0.291028 1 0 ack 40 ------- 2 1.1 0.1 10 177
r 0.291868 0 1 exp 210 ------- 1 0.0 1.0 72 112
r 0.292708 0 1 exp 210 ------- 1 0.0 1.0 73 114
- 0.292708 0 1 exp 210 ------- 1 0.0 1.0 78 124
+ 0.293059 0 1 exp 210 ------- 1 0.0 1.0 108 178
- 0.293548 0 1 exp 210 ------- 1 0.0 1.0 79 125
+ 0.294179 0 1 exp 210 ------- 1 0.0 1.0 109 179
- 0.294388 0 1 exp 210 ------- 1 0.0 1.0 80 127
- 0.295228 0 1 exp 210 ------- 1 0.0 1.0 81 128
+ 0.295299 0 1 exp 210 ------- 1 0.0 1.0 110 180
- 0.296068 0 1 tcp 1040 ------- 3 0.2 1.2 7 129
r 0.296868 0 1 tcp 1040 ------- 2 0.1 1.1 11 115
+ 0.296868 1 0 ack 40 ------- 2 1.1 0.1 11 181
- 0.296868 1 0 ack 40 ------- 2 1.1 0.1 11 181
r 0.297028 1 0 ack 40 ------- 2 1.1 0.1 7 159
+ 0.297028 0 1 tcp 1040 ------- 2 0.1 1.1 15 182
+ 0.297028 0 1 tcp 1040 ------- 2 0.1 1.1 16 183
- 0.300228 0 1 tcp 1040 ------- 3 0.2 1.2 8 130
+ 0.300932 0 1 exp 210 ------- 1 0.0 1.0 111 184
r 0.301028 0 1 tcp 1040 ------- 2 0.1 1.1 12 116
+ 0.301028 1 0 ack 40 ------- 2 1.1 0.1 12 185
- 0.301028 1 0 ack 40 ------- 2 1.1 0.1 12 185
r 0.301188 1 0 ack 40 ------- 2 1.1 0.1 8 166
+ 0.301188 0 1 tcp 1040 ------- 2 0.1 1.1 17 186
+ 0.301188 0 1 tcp 1040 ------- 2 0.1 1.1 18 187
r 0.301868 0 1 exp 210 ------- 1 0.0 1.0 74 117
r 0.302708 0 1 exp 210 ------- 1 0.0 1.0 75 118
r 0.303548 0 1 exp 210 ------- 1 0.0 1.0 76 120
r 0.304388 0 1 exp 210 ------- 1 0.0 1.0 77 121
- 0.304388 0 1 exp 210 ------- 1 0.0 1.0 82 131
- 0.305228 0 1 exp 210 ------- 1 0.0 1.0 83 132
- 0.306068 0 1 tcp 1040 ------- 3 0.2 1.2 9 134
+ 0.306581 0 1 exp 210 ------- 1 0.0 1.0 112 188
r 0.307028 1 0 ack 40 ------- 2 1.1 0.1 9 172
+ 0.307028 0 1 tcp 1040 ------- 2 0.1 1.1 19 189
+ 0.307028 0 1 tcp 1040 ------- 2 0.1 1.1 20 190
+ 0.307701 0 1 exp 210 ------- 1 0.0 1.0 113 191
r 0.308548 0 1 tcp 1040 ------- 2 0.1 1.1 13 122
+ 0.308548 1 0 ack 40 ------- 2 1.1 0.1 13 192
- 0.308548 1 0 ack 40 ------- 2 1.1 0.1 13 192
+ 0.308821 0 1 exp 210 ------- 1 0.0 1.0 114 193
+ 0.309941 0 1 exp 210 ------- 1 0.0 1.0 115 194
- 0.310228 0 1 tcp 1040 ------- 3 0.2 1.2 10 135
+ 0.311061 0 1 exp 210 ------- 1 0.0 1.0 116 195
r 0.311188 1 0 ack 40 ------- 2 1.1 0.1 10 177
+ 0.311188 0 1 tcp 1040 ------- 2 0.1 1.1 21 196
+ 0.311188 0 1 tcp 1040 ------- 2 0.1 1.1 22 197
+ 0.312181 0 1 exp 210 ------- 1 0.0 1.0 117 198
r 0.312708 0 1 tcp 1040 ------- 2 0.1 1.1 14 123
+ 0.312708 1 0 ack 40 ------- 2 1.1 0.1 14 199
- 0.312708 1 0 ack 40 ------- 2 1.1 0.1 14 199
+ 0.313301 0 1 exp 210 ------- 1 0.0 1.0 118 200
r 0.313548 0 1 exp 210 ------- 1 0.0 1.0 78 124
r 0.314388 0 1 exp 210 ------- 1 0.0 1.0 79 125
- 0.314388 0 1 exp 210 ------- 1 0.0 1.0 84 137
+ 0.314421 0 1 exp 210 ------- 1 0.0 1.0 119 201
r 0.315228 0 1 exp 210 ------- 1 0.0 1.0 80 127
- 0.315228 0 1 exp 210 ------- 1 0.0 1.0 85 138
+ 0.315541 0 1 exp 210 ------- 1 0.0 1.0 120 202
r 0.316068 0 1 exp 210 ------- 1 0.0 1.0 81 128
- 0.316068 0 1 exp 210 ------- 1 0.0 1.0 86 139
+ 0.316661 0 1 exp 210 ------- 1 0.0 1.0 121 203
- 0.316908 0 1 tcp 1040 ------- 3 0.2 1.2 11 140
r 0.317028 1 0 ack 40 ------- 2 1.1 0.1 11 181
+ 0.317028 0 1 tcp 1040 ------- 2 0.1 1.1 23 204
+ 0.317028 0 1 tcp 1040 ------- 2 0.1 1.1 24 205
+ 0.317781 0 1 exp 210 ------- 1 0.0 1.0 122 206
+ 0.318901 0 1 exp 210 ------- 1 0.0 1.0 123 207
+ 0.320021 0 1 exp 210 ------- 1 0.0 1.0 124 208
r 0.320228 0 1 tcp 1040 ------- 3 0.2 1.2 7 129
+ 0.320228 1 0 ack 40 ------- 3 1.2 0.2 7 209
- 0.320228 1 0 ack 40 ------- 3 1.2 0.2 7 209
- 0.321068 0 1 tcp 1040 ------- 3 0.2 1.2 12 141
+ 0.321141 0 1 exp 210 ------- 1 0.0 1.0 125 210
r 0.321188 1 0 ack 40 ------- 2 1.1 0.1 12 185
+ 0.321188 0 1 tcp 1040 ------- 2 0.1 1.1 25 211
+ 0.321188 0 1 tcp 1040 ------- 2 0.1 1.1 26 212
+ 0.322261 0 1 exp 210 ------- 1 0.0 1.0 126 213
+ 0.323381 0 1 exp 210 ------- 1 0.0 1.0 127 214
r 0.324388 0 1 tcp 1040 ------- 3 0.2 1.2 8 130
+ 0.324388 1 0 ack 40 ------- 3 1.2 0.2 8 215
- 0.324388 1 0 ack 40 ------- 3 1.2 0.2 8 215
+ 0.324501 0 1 exp 210 ------- 1 0.0 1.0 128 216
r 0.325228 0 1 exp 210 ------- 1 0.0 1.0 82 131
- 0.325228 0 1 exp 210 ------- 1 0.0 1.0 87 142
+ 0.325621 0 1 exp 210 ------- 1 0.0 1.0 129 217
r 0.326068 0 1 exp 210 ------- 1 0.0 1.0 83 132
- 0.326068 0 1 exp 210 ------- 1 0.0 1.0 88 144
+ 0.326741 0 1 exp 210 ------- 1 0.0 1.0 130 218
- 0.326908 0 1 exp 210 ------- 1 0.0 1.0 89 145
- 0.327748 0 1 tcp 1040 ------- 3 0.2 1.2 13 146
+ 0.327861 0 1 exp 210 ------- 1 0.0 1.0 131 219
r 0.328708 1 0 ack 40 ------- 2 1.1 0.1 13 192
+ 0.328708 0 1 tcp 1040 ------- 2 0.1 1.1 27 220
+ 0.328708 0 1 tcp 1040 ------- 2 0.1 1.1 28 221
+ 0.329578 0 1 exp 210 ------- 1 0.0 1.0 132 222
r 0.330228 0 1 tcp 1040 ------- 3 0.2 1.2 9 134
+ 0.330228 1 0 ack 40 ------- 3 1.2 0.2 9 223
- 0.330228 1 0 ack 40 ------- 3 1.2 0.2 9 223
+ 0.330698 0 1 exp 210 ------- 1 0.0 1.0 133 224
+ 0.331818 0 1 exp 210 ------- 1 0.0 1.0 134 225
- 0.331908 0 1 tcp 1040 ------- 3 0.2 1.2 14 147
r 0.332868 1 0 ack 40 ------- 2 1.1 0.1 14 199
+ 0.332868 0 1 tcp 1040 ------- 2 0.1 1.1 29 226
+ 0.332868 0 1 tcp 1040 ------- 2 0.1 1.1 30 227
+ 0.332938 0 1 exp 210 ------- 1 0.0 1.0 135 228
+ 0.334058 0 1 exp 210 ------- 1 0.0 1.0 136 229
r 0.334388 0 1 tcp 1040 ------- 3 0.2 1.2 10 135
+ 0.334388 1 0 ack 40 ------- 3 1.2 0.2 10 230
- 0.334388 1 0 ack 40 ------- 3 1.2 0.2 10 230
+ 0.335178 0 1 exp 210 ------- 1 0.0 1.0 137 231
r 0.335228 0 1 exp 210 ------- 1 0.0 1.0 84 137
r 0.336068 0 1 exp 210 ------- 1 0.0 1.0 85 138
- 0.336068 0 1 exp 210 ------- 1 0.0 1.0 90 148
+ 0.336298 0 1 exp 210 ------- 1 0.0 1.0 138 232
r 0.336908 0 1 exp 210 ------- 1 0.0 1.0 86 139
- 0.336908 0 1 exp 210 ------- 1 0.0 1.0 91 149
+ 0.337418 0 1 exp 210 ------- 1 0.0 1.0 139 233
- 0.337748 0 1 exp 210 ------- 1 0.0 1.0 92 150
+ 0.338538 0 1 exp 210 ------- 1 0.0 1.0 140 234
- 0.338588 0 1 tcp 1040 ------- 4 0.3 1.3 7 151
+ 0.339658 0 1 exp 210 ------- 1 0.0 1.0 141 235
r 0.340388 1 0 ack 40 ------- 3 1.2 0.2 7 209
+ 0.340388 0 1 tcp 1040 ------- 3 0.2 1.2 15 236
+ 0.340388 0 1 tcp 1040 ------- 3 0.2 1.2 16 237
+ 0.340778 0 1 exp 210 ------- 1 0.0 1.0 142 238
r 0.341068 0 1 tcp 1040 ------- 3 0.2 1.2 11 140
+ 0.341068 1 0 ack 40 ------- 3 1.2 0.2 11 239
- 0.341068 1 0 ack 40 ------- 3 1.2 0.2 11 239
+ 0.341898 0 1 exp 210 ------- 1 0.0 1.0 143 240
- 0.342748 0 1 tcp 1040 ------- 4 0.3 1.3 8 152
+ 0.343018 0 1 exp 210 ------- 1 0.0 1.0 144 241
+ 0.344138 0 1 exp 210 ------- 1 0.0 1.0 145 242
r 0.344548 1 0 ack 40 ------- 3 1.2 0.2 8 215
+ 0.344548 0 1 tcp 1040 ------- 3 0.2 1.2 17 243
+ 0.344548 0 1 tcp 1040 ------- 3 0.2 1.2 18 244
r 0.345228 0 1 tcp 1040 ------- 3 0.2 1.2 12 141
+ 0.345228 1 0 ack 40 ------- 3 1.2 0.2 12 245
- 0.345228 1 0 ack 40 ------- 3 1.2 0.2 12 245
+ 0.345258 0 1 exp 210 ------- 1 0.0 1.0 146 246
r 0.346068 0 1 exp 210 ------- 1 0.0 1.0 87 142
r 0.346908 0 1 exp 210 ------- 1 0.0 1.0 88 144
- 0.346908 0 1 tcp 1040 ------- 4 0.3 1.3 9 153
+ 0.346953 0 1 exp 210 ------- 1 0.0 1.0 147 247
r 0.347748 0 1 exp 210 ------- 1 0.0 1.0 89 145
r 0.350388 1 0 ack 40 ------- 3 1.2 0.2 9 223
+ 0.350388 0 1 tcp 1040 ------- 3 0.2 1.2 19 248
+ 0.350388 0 1 tcp 1040 ------- 3 0.2 1.2 20 249
- 0.351068 0 1 tcp 1040 ------- 4 0.3 1.3 10 154
r 0.351908 0 1 tcp 1040 ------- 3 0.2 1.2 13 146
+ 0.351908 1 0 ack 40 ------- 3 1.2 0.2 13 250
- 0.351908 1 0 ack 40 ------- 3 1.2 0.2 13 250
r 0.354548 1 0 ack 40 ------- 3 1.2 0.2 10 230
+ 0.354548 0 1 tcp 1040 ------- 3 0.2 1.2 21 251
+ 0.354548 0 1 tcp 1040 ------- 3 0.2 1.2 22 252
- 0.355228 0 1 exp 210 ------- 1 0.0 1.0 93 155
r 0.356068 0 1 tcp 1040 ------- 3 0.2 1.2 14 147
+ 0.356068 1 0 ack 40 ------- 3 1.2 0.2 14 253
- 0.356068 1 0 ack 40 ------- 3 1.2 0.2 14 253
- 0.356068 0 1 exp 210 ------- 1 0.0 1.0 94 156
r 0.356908 0 1 exp 210 ------- 1 0.0 1.0 90 148
- 0.356908 0 1 tcp 1040 ------- 4 0.3 1.3 11 157
r 0.357748 0 1 exp 210 ------- 1 0.0 1.0 91 149
r 0.358588 0 1 exp 210 ------- 1 0.0 1.0 92 150
- 0.361068 0 1 tcp 1040 ------- 4 0.3 1.3 12 158
r 0.361228 1 0 ack 40 ------- 3 1.2 0.2 11 239
+ 0.361228 0 1 tcp 1040 ------- 3 0.2 1.2 23 254
+ 0.361228 0 1 tcp 1040 ------- 3 0.2 1.2 24 255
+ 0.362275 0 1 exp 210 ------- 1 0.0 1.0 148 256
r 0.362748 0 1 tcp 1040 ------- 4 0.3 1.3 7 151
+ 0.362748 1 0 ack 40 ------- 4 1.3 0.3 7 257
- 0.362748 1 0 ack 40 ------- 4 1.3 0.3 7 257
+ 0.363395 0 1 exp 210 ------- 1 0.0 1.0 149 258
+ 0.364515 0 1 exp 210 ------- 1 0.0 1.0 150 259
- 0.365228 0 1 exp 210 ------- 1 0.0 1.0 95 160
r 0.365388 1 0 ack 40 ------- 3 1.2 0.2 12 245
+ 0.365388 0 1 tcp 1040 ------- 3 0.2 1.2 25 260
+ 0.365388 0 1 tcp 1040 ------- 3 0.2 1.2 26 261
+ 0.365635 0 1 exp 210 ------- 1 0.0 1.0 151 262
- 0.366068 0 1 exp 210 ------- 1 0.0 1.0 96 161
+ 0.366755 0 1 exp 210 ------- 1 0.0 1.0 152 263
r 0.366908 0 1 tcp 1040 ------- 4 0.3 1.3 8 152
+ 0.366908 1 0 ack 40 ------- 4 1.3 0.3 8 264
- 0.366908 1 0 ack 40 ------- 4 1.3 0.3 8 264
- 0.366908 0 1 exp 210 ------- 1 0.0 1.0 97 162
- 0.367748 0 1 tcp 1040 ------- 4 0.3 1.3 13 163
+ 0.367875 0 1 exp 210 ------- 1 0.0 1.0 153 265
+ 0.368995 0 1 exp 210 ------- 1 0.0 1.0 154 266
+ 0.370115 0 1 exp 210 ------- 1 0.0 1.0 155 267
r 0.371068 0 1 tcp 1040 ------- 4 0.3 1.3 9 153
+ 0.371068 1 0 ack 40 ------- 4 1.3 0.3 9 268
- 0.371068 1 0 ack 40 ------- 4 1.3 0.3 9 268
+ 0.371235 0 1 exp 210 ------- 1 0.0 1.0 156 269
- 0.371908 0 1 tcp 1040 ------- 4 0.3 1.3 14 164
r 0.372068 1 0 ack 40 ------- 3 1.2 0.2 13 250
+ 0.372068 0 1 tcp 1040 ------- 3 0.2 1.2 27 270
+ 0.372068 0 1 tcp 1040 ------- 3 0.2 1.2 28 271
+ 0.372355 0 1 exp 210 ------- 1 0.0 1.0 157 272
+ 0.373475 0 1 exp 210 ------- 1 0.0 1.0 158 273
+ 0.374595 0 1 exp 210 ------- 1 0.0 1.0 159 274
r 0.375228 0 1 tcp 1040 ------- 4 0.3 1.3 10 154
+ 0.375228 1 0 ack 40 ------- 4 1.3 0.3 10 275
- 0.375228 1 0 ack 40 ------- 4 1.3 0.3 10 275
+ 0.375715 0 1 exp 210 ------- 1 0.0 1.0 160 276
r 0.376068 0 1 exp 210 ------- 1 0.0 1.0 93 155
- 0.376068 0 1 exp 210 ------- 1 0.0 1.0 98 165
r 0.376228 1 0 ack 40 ------- 3 1.2 0.2 14 253
+ 0.376228 0 1 tcp 1040 ------- 3 0.2 1.2 29 277