V -t * -v 1.0a5 -a 0
A -t * -n 1 -p 0 -o 0x7fffffff -c 30 -a 1
A -t * -h 1 -m 1073741823 -s 0
c -t * -i 0 -n blue
c -t * -i 1 -n red
c -t * -i 2 -n white
n -t * -a 0 -s 0 -S UP -v circle -c black -i black
n -t * -a 1 -s 1 -S UP -v circle -c black -i black
l -t * -s 0 -d 1 -S UP -r 2000000 -D 0.02 -c black -o right-down
q -t * -s 1 -d 0 -a 0.5
q -t * -s 0 -d 1 -a 0.5
+ -t 0.1 -s 0 -d 1 -p tcp -e 40 -c 2 -i 0 -a 2 -x {0.1 1.1 0 ------- null}
- -t 0.1 -s 0 -d 1 -p tcp -e 40 -c 2 -i 0 -a 2 -x {0.1 1.1 0 ------- null}
h -t 0.1 -s 0 -d 1 -p tcp -e 40 -c 2 -i 0 -a 2 -x {0.1 1.1 -1 ------- null}
+ -t 0.1 -s 0 -d 1 -p tcp -e 40 -c 3 -i 1 -a 3 -x {0.2 1.2 0 ------- null}
+ -t 0.1 -s 0 -d 1 -p tcp -e 40 -c 4 -i 2 -a 4 -x {0.3 1.3 0 ------- null}
- -t 0.10016 -s 0 -d 1 -p tcp -e 40 -c 3 -i 1 -a 3 -x {0.2 1.2 0 ------- null}
h -t 0.10016 -s 0 -d 1 -p tcp -e 40 -c 3 -i 1 -a 3 -x {0.2 1.2 -1 ------- null}
- -t 0.10032 -s 0 -d 1 -p tcp -e 40 -c 4 -i 2 -a 4 -x {0.3 1.3 0 ------- null}
h -t 0.10032 -s 0 -d 1 -p tcp -e 40 -c 4 -i 2 -a 4 -x {0.3 1.3 -1 ------- null}
+ -t 0.102133788488882 -s 0 -d 1 -p exp -e 210 -c 1 -i 3 -a 1 -x {0.0 1.0 0 ------- null}
- -t 0.102133788488882 -s 0 -d 1 -p exp -e 210 -c 1 -i 3 -a 1 -x {0.0 1.0 0 ------- null}
h -t 0.102133788488882 -s 0 -d 1 -p exp -e 210 -c 1 -i 3 -a 1 -x {0.0 1.0 -1 ------- null}
+ -t 0.103253788488882 -s 0 -d 1 -p exp -e 210 -c 1 -i 4 -a 1 -x {0.0 1.0 1 ------- null}
- -t 0.103253788488882 -s 0 -d 1 -p exp -e 210 -c 1 -i 4 -a 1 -x {0.0 1.0 1 ------- null}
h -t 0.103253788488882 -s 0 -d 1 -p exp -e 210 -c 1 -i 4 -a 1 -x {0.0 1.0 -1 ------- null}
+ -t 0.104373788488882 -s 0 -d 1 -p exp -e 210 -c 1 -i 5 -a 1 -x {0.0 1.0 2 ------- null}
- -t 0.104373788488882 -s 0 -d 1 -p exp -e 210 -c 1 -i 5 -a 1 -x {0.0 1.0 2 ------- null}
h -t 0.104373788488882 -s 0 -d 1 -p exp -e 210 -c 1 -i 5 -a 1 -x {0.0 1.0 -1 ------- null}
+ -t 0.105493788488882 -s 0 -d 1 -p exp -e 210 -c 1 -i 6 -a 1 -x {0.0 1.0 3 ------- null}
- -t 0.105493788488882 -s 0 -d 1 -p exp -e 210 -c 1 -i 6 -a 1 -x {0.0 1.0 3 ------- null}
h -t 0.105493788488882 -s 0 -d 1 -p exp -e 210 -c 1 -i 6 -a 1 -x {0.0 1.0 -1 ------- null}
+ -t 0.106613788488882 -s 0 -d 1 -p exp -e 210 -c 1 -i 7 -a 1 -x {0.0 1.0 4 ------- null}
- -t 0.106613788488882 -s 0 -d 1 -p exp -e 210 -c 1 -i 7 -a 1 -x {0.0 1.0 4 ------- null}
h -t 0.106613788488882 -s 0 -d 1 -p exp -e 210 -c 1 -i 7 -a 1 -x {0.0 1.0 -1 ------- null}
+ -t 0.107733788488882 -s 0 -d 1 -p exp -e 210 -c 1 -i 8 -a 1 -x {0.0 1.0 5 ------- null}
- -t 0.107733788488882 -s 0 -d 1 -p exp -e 210 -c 1 -i 8 -a 1 -x {0.0 1.0 5 ------- null}
h -t 0.107733788488882 -s 0 -d 1 -p exp -e 210 -c 1 -i 8 -a 1 -x {0.0 1.0 -1 ------- null}
+ -t 0.108853788488882 -s 0 -d 1 -p exp -e 210 -c 1 -i 9 -a 1 -x {0.0 1.0 6 ------- null}
- -t 0.108853788488882 -s 0 -d 1 -p exp -e 210 -c 1 -i 9 -a 1 -x {0.0 1.0 6 ------- null}
h -t 0.108853788488882 -s 0 -d 1 -p exp -e 210 -c 1 -i 9 -a 1 -x {0.0 1.0 -1 ------- null}
+ -t 0.109973788488882 -s 0 -d 1 -p exp -e 210 -c 1 -i 10 -a 1 -x {0.0 1.0 7 ------- null}
- -t 0.109973788488882 -s 0 -d 1 -p exp -e 210 -c 1 -i 10 -a 1 -x {0.0 1.0 7 ------- null}
h -t 0.109973788488882 -s 0 -d 1 -p exp -e 210 -c 1 -i 10 -a 1 -x {0.0 1.0 -1 ------- null}
+ -t 0.111093788488882 -s 0 -d 1 -p exp -e 210 -c 1 -i 11 -a 1 -x {0.0 1.0 8 ------- null}
- -t 0.111093788488882 -s 0 -d 1 -p exp -e 210 -c 1 -i 11 -a 1 -x {0.0 1.0 8 ------- null}
h -t 0.111093788488882 -s 0 -d 1 -p exp -e 210 -c 1 -i 11 -a 1 -x {0.0 1.0 -1 ------- null}
+ -t 0.112213788488882 -s 0 -d 1 -p exp -e 210 -c 1 -i 12 -a 1 -x {0.0 1.0 9 ------- null}
- -t 0.112213788488882 -s 0 -d 1 -p exp -e 210 -c 1 -i 12 -a 1 -x {0.0 1.0 9 ------- null}
h -t 0.112213788488882 -s 0 -d 1 -p exp -e 210 -c 1 -i 12 -a 1 -x {0.0 1.0 -1 ------- null}
+ -t 0.115574097940276 -s 0 -d 1 -p exp -e 210 -c 1 -i 13 -a 1 -x {0.0 1.0 10 ------- null}
- -t 0.115574097940276 -s 0 -d 1 -p exp -e 210 -c 1 -i 13 -a 1 -x {0.0 1.0 10 ------- null}
h -t 0.115574097940276 -s 0 -d 1 -p exp -e 210 -c 1 -i 13 -a 1 -x {0.0 1.0 -1 ------- null}
+ -t 0.116694097940276 -s 0 -d 1 -p exp -e 210 -c 1 -i 14 -a 1 -x {0.0 1.0 11 ------- null}
- -t 0.116694097940276 -s 0 -d 1 -p exp -e 210 -c 1 -i 14 -a 1 -x {0.0 1.0 11 ------- null}
h -t 0.116694097940276 -s 0 -d 1 -p exp -e 210 -c 1 -i 14 -a 1 -x {0.0 1.0 -1 ------- null}
+ -t 0.117814097940276 -s 0 -d 1 -p exp -e 210 -c 1 -i 15 -a 1 -x {0.0 1.0 12 ------- null}
- -t 0.117814097940276 -s 0 -d 1 -p exp -e 210 -c 1 -i 15 -a 1 -x {0.0 1.0 12 ------- null}
h -t 0.117814097940276 -s 0 -d 1 -p exp -e 210 -c 1 -i 15 -a 1 -x {0.0 1.0 -1 ------- null}
+ -t 0.118934097940276 -s 0 -d 1 -p exp -e 210 -c 1 -i 16 -a 1 -x {0.0 1.0 13 ------- null}
- -t 0.118934097940276 -s 0 -d 1 -p exp -e 210 -c 1 -i 16 -a 1 -x {0.0 1.0 13 ------- null}
h -t 0.118934097940276 -s 0 -d 1 -p exp -e 210 -c 1 -i 16 -a 1 -x {0.0 1.0 -1 ------- null}
+ -t 0.120054097940276 -s 0 -d 1 -p exp -e 210 -c 1 -i 17 -a 1 -x {0.0 1.0 14 ------- null}
- -t 0.120054097940276 -s 0 -d 1 -p exp -e 210 -c 1 -i 17 -a 1 -x {0.0 1.0 14 ------- null}
h -t 0.120054097940276 -s 0 -d 1 -p exp -e 210 -c 1 -i 17 -a 1 -x {0.0 1.0 -1 ------- null}
r -t 0.12016 -s 0 -d 1 -p tcp -e 40 -c 2 -i 0 -a 2 -x {0.1 1.1 0 ------- null}
+ -t 0.12016 -s 1 -d 0 -p ack -e 40 -c 2 -i 18 -a 2 -x {1.1 0.1 0 ------- null}
- -t 0.12016 -s 1 -d 0 -p ack -e 40 -c 2 -i 18 -a 2 -x {1.1 0.1 0 ------- null}
h -t 0.12016 -s 1 -d 0 -p ack -e 40 -c 2 -i 18 -a 2 -x {1.1 0.1 -1 ------- null}
r -t 0.12032 -s 0 -d 1 -p tcp -e 40 -c 3 -i 1 -a 3 -x {0.2 1.2 0 ------- null}
+ -t 0.12032 -s 1 -d 0 -p ack -e 40 -c 3 -i 19 -a 3 -x {1.2 0.2 0 ------- null}
- -t 0.12032 -s 1 -d 0 -p ack -e 40 -c 3 -i 19 -a 3 -x {1.2 0.2 0 ------- null}
h -t 0.12032 -s 1 -d 0 -p ack -e 40 -c 3 -i 19 -a 3 -x {1.2 0.2 -1 ------- null}
r -t 0.12048 -s 0 -d 1 -p tcp -e 40 -c 4 -i 2 -a 4 -x {0.3 1.3 0 ------- null}
+ -t 0.12048 -s 1 -d 0 -p ack -e 40 -c 4 -i 20 -a 4 -x {1.3 0.3 0 ------- null}
- -t 0.12048 -s 1 -d 0 -p ack -e 40 -c 4 -i 20 -a 4 -x {1.3 0.3 0 ------- null}
h -t 0.12048 -s 1 -d 0 -p ack -e 40 -c 4 -i 20 -a 4 -x {1.3 0.3 -1 ------- null}
+ -t 0.121174097940276 -s 0 -d 1 -p exp -e 210 -c 1 -i 21 -a 1 -x {0.0 1.0 15 ------- null}
- -t 0.121174097940276 -s 0 -d 1 -p exp -e 210 -c 1 -i 21 -a 1 -x {0.0 1.0 15 ------- null}
h -t 0.121174097940276 -s 0 -d 1 -p exp -e 210 -c 1 -i 21 -a 1 -x {0.0 1.0 -1 ------- null}
+ -t 0.122294097940276 -s 0 -d 1 -p exp -e 210 -c 1 -i 22 -a 1 -x {0.0 1.0 16 ------- null}
- -t 0.122294097940276 -s 0 -d 1 -p exp -e 210 -c 1 -i 22 -a 1 -x {0.0 1.0 16 ------- null}
h -t 0.122294097940276 -s 0 -d 1 -p exp -e 210 -c 1 -i 22 -a 1 -x {0.0 1.0 -1 ------- null}
r -t 0.122973788488882 -s 0 -d 1 -p exp -e 210 -c 1 -i 3 -a 1 -x {0.0 1.0 0 ------- null}
+ -t 0.123414097940276 -s 0 -d 1 -p exp -e 210 -c 1 -i 23 -a 1 -x {0.0 1.0 17 ------- null}
- -t 0.123414097940276 -s 0 -d 1 -p exp -e 210 -c 1 -i 23 -a 1 -x {0.0 1.0 17 ------- null}
h -t 0.123414097940276 -s 0 -d 1 -p exp -e 210 -c 1 -i 23 -a 1 -x {0.0 1.0 -1 ------- null}
r -t 0.124093788488882 -s 0 -d 1 -p exp -e 210 -c 1 -i 4 -a 1 -x {0.0 1.0 1 ------- null}
+ -t 0.124534097940276 -s 0 -d 1 -p exp -e 210 -c 1 -i 24 -a 1 -x {0.0 1.0 18 ------- null}
- -t 0.124534097940276 -s 0 -d 1 -p exp -e 210 -c 1 -i 24 -a 1 -x {0.0 1.0 18 ------- null}
h -t 0.124534097940276 -s 0 -d 1 -p exp -e 210 -c 1 -i 24 -a 1 -x {0.0 1.0 -1 ------- null}
r -t 0.125213788488882 -s 0 -d 1 -p exp -e 210 -c 1 -i 5 -a 1 -x {0.0 1.0 2 ------- null}
+ -t 0.125654097940276 -s 0 -d 1 -p exp -e 210 -c 1 -i 25 -a 1 -x {0.0 1.0 19 ------- null}
- -t 0.125654097940276 -s 0 -d 1 -p exp -e 210 -c 1 -i 25 -a 1 -x {0.0 1.0 19 ------- null}
h -t 0.125654097940276 -s 0 -d 1 -p exp -e 210 -c 1 -i 25 -a 1 -x {0.0 1.0 -1 ------- null}
r -t 0.126333788488882 -s 0 -d 1 -p exp -e 210 -c 1 -i 6 -a 1 -x {0.0 1.0 3 ------- null}
+ -t 0.126774097940276 -s 0 -d 1 -p exp -e 210 -c 1 -i 26 -a 1 -x {0.0 1.0 20 ------- null}
- -t 0.126774097940276 -s 0 -d 1 -p exp -e 210 -c 1 -i 26 -a 1 -x {0.0 1.0 20 ------- null}
h -t 0.126774097940276 -s 0 -d 1 -p exp -e 210 -c 1 -i 26 -a 1 -x {0.0 1.0 -1 ------- null}
r -t 0.127453788488882 -s 0 -d 1 -p exp -e 210 -c 1 -i 7 -a 1 -x {0.0 1.0 4 ------- null}
+ -t 0.127894097940276 -s 0 -d 1 -p exp -e 210 -c 1 -i 27 -a 1 -x {0.0 1.0 21 ------- null}
- -t 0.127894097940276 -s 0 -d 1 -p exp -e 210 -c 1 -i 27 -a 1 -x {0.0 1.0 21 ------- null}
h -t 0.127894097940276 -s 0 -d 1 -p exp -e 210 -c 1 -i 27 -a 1 -x {0.0 1.0 -1 ------- null}
r -t 0.128573788488882 -s 0 -d 1 -p exp -e 210 -c 1 -i 8 -a 1 -x {0.0 1.0 5 ------- null}
+ -t 0.129014097940276 -s 0 -d 1 -p exp -e 210 -c 1 -i 28 -a 1 -x {0.0 1.0 22 ------- null}
- -t 0.129014097940276 -s 0 -d 1 -p exp -e 210 -c 1 -i 28 -a 1 -x {0.0 1.0 22 ------- null}
h -t 0.129014097940276 -s 0 -d 1 -p exp -e 210 -c 1 -i 28 -a 1 -x {0.0 1.0 -1 ------- null}
r -t 0.129693788488882 -s 0 -d 1 -p exp -e 210 -c 1 -i 9 -a 1 -x {0.0 1.0 6 ------- null}
r -t 0.130813788488882 -s 0 -d 1 -p exp -e 210 -c 1 -i 10 -a 1 -x {0.0 1.0 7 ------- null}
+ -t 0.131027796614662 -s 0 -d 1 -p exp -e 210 -c 1 -i 29 -a 1 -x {0.0 1.0 23 ------- null}
- -t 0.131027796614662 -s 0 -d 1 -p exp -e 210 -c 1 -i 29 -a 1 -x {0.0 1.0 23 ------- null}
h -t 0.131027796614662 -s 0 -d 1 -p exp -e 210 -c 1 -i 29 -a 1 -x {0.0 1.0 -1 ------- null}
r -t 0.131933788488882 -s 0 -d 1 -p exp -e 210 -c 1 -i 11 -a 1 -x {0.0 1.0 8 ------- null}
+ -t 0.132147796614662 -s 0 -d 1 -p exp -e 210 -c 1 -i 30 -a 1 -x {0.0 1.0 24 ------- null}
- -t 0.132147796614662 -s 0 -d 1 -p exp -e 210 -c 1 -i 30 -a 1 -x {0.0 1.0 24 ------- null}
h -t 0.132147796614662 -s 0 -d 1 -p exp -e 210 -c 1 -i 30 -a 1 -x {0.0 1.0 -1 ------- null}
r -t 0.133053788488882 -s 0 -d 1 -p exp -e 210 -c 1 -i 12 -a 1 -x {0.0 1.0 9 ------- null}
+ -t 0.133267796614662 -s 0 -d 1 -p exp -e 210 -c 1 -i 31 -a 1 -x {0.0 1.0 25 ------- null}
- -t 0.133267796614662 -s 0 -d 1 -p exp -e 210 -c 1 -i 31 -a 1 -x {0.0 1.0 25 ------- null}
h -t 0.133267796614662 -s 0 -d 1 -p exp -e 210 -c 1 -i 31 -a 1 -x {0.0 1.0 -1 ------- null}
+ -t 0.134387796614662 -s 0 -d 1 -p exp -e 210 -c 1 -i 32 -a 1 -x {0.0 1.0 26 ------- null}
- -t 0.134387796614662 -s 0 -d 1 -p exp -e 210 -c 1 -i 32 -a 1 -x {0.0 1.0 26 ------- null}
h -t 0.134387796614662 -s 0 -d 1 -p exp -e 210 -c 1 -i 32 -a 1 -x {0.0 1.0 -1 ------- null}
+ -t 0.135507796614662 -s 0 -d 1 -p exp -e 210 -c 1 -i 33 -a 1 -x {0.0 1.0 27 ------- null}
- -t 0.135507796614662 -s 0 -d 1 -p exp -e 210 -c 1 -i 33 -a 1 -x {0.0 1.0 27 ------- null}
h -t 0.135507796614662 -s 0 -d 1 -p exp -e 210 -c 1 -i 33 -a 1 -x {0.0 1.0 -1 ------- null}
r -t 0.136414097940276 -s 0 -d 1 -p exp -e 210 -c 1 -i 13 -a 1 -x {0.0 1.0 10 ------- null}
+ -t 0.136627796614662 -s 0 -d 1 -p exp -e 210 -c 1 -i 34 -a 1 -x {0.0 1.0 28 ------- null}
- -t 0.136627796614662 -s 0 -d 1 -p exp -e 210 -c 1 -i 34 -a 1 -x {0.0 1.0 28 ------- null}
h -t 0.136627796614662 -s 0 -d 1 -p exp -e 210 -c 1 -i 34 -a 1 -x {0.0 1.0 -1 ------- null}
r -t 0.137534097940276 -s 0 -d 1 -p exp -e 210 -c 1 -i 14 -a 1 -x {0.0 1.0 11 ------- null}
+ -t 0.137747796614662 -s 0 -d 1 -p exp -e 210 -c 1 -i 35 -a 1 -x {0.0 1.0 29 ------- null}
- -t 0.137747796614662 -s 0 -d 1 -p exp -e 210 -c 1 -i 35 -a 1 -x {0.0 1.0 29 ------- null}
h -t 0.137747796614662 -s 0 -d 1 -p exp -e 210 -c 1 -i 35 -a 1 -x {0.0 1.0 -1 ------- null}
r -t 0.138654097940276 -s 0 -d 1 -p exp -e 210 -c 1 -i 15 -a 1 -x {0.0 1.0 12 ------- null}
+ -t 0.138867796614662 -s 0 -d 1 -p exp -e 210 -c 1 -i 36 -a 1 -x {0.0 1.0 30 ------- null}
- -t 0.138867796614662 -s 0 -d 1 -p exp -e 210 -c 1 -i 36 -a 1 -x {0.0 1.0 30 ------- null}
h -t 0.138867796614662 -s 0 -d 1 -p exp -e 210 -c 1 -i 36 -a 1 -x {0.0 1.0 -1 ------- null}
r -t 0.139774097940276 -s 0 -d 1 -p exp -e 210 -c 1 -i 16 -a 1 -x {0.0 1.0 13 ------- null}
+ -t 0.139987796614662 -s 0 -d 1 -p exp -e 210 -c 1 -i 37 -a 1 -x {0.0 1.0 31 ------- null}
- -t 0.139987796614662 -s 0 -d 1 -p exp -e 210 -c 1 -i 37 -a 1 -x {0.0 1.0 31 ------- null}
h -t 0.139987796614662 -s 0 -d 1 -p exp -e 210 -c 1 -i 37 -a 1 -x {0.0 1.0 -1 ------- null}
r -t 0.14032 -s 1 -d 0 -p ack -e 40 -c 2 -i 18 -a 2 -x {1.1 0.1 0 ------- null}
+ -t 0.14032 -s 0 -d 1 -p tcp -e 1040 -c 2 -i 38 -a 2 -x {0.1 1.1 1 ------- null}
+ -t 0.14032 -s 0 -d 1 -p tcp -e 1040 -c 2 -i 39 -a 2 -x {0.1 1.1 2 ------- null}
r -t 0.14048 -s 1 -d 0 -p ack -e 40 -c 3 -i 19 -a 3 -x {1.2 0.2 0 ------- null}
+ -t 0.14048 -s 0 -d 1 -p tcp -e 1040 -c 3 -i 40 -a 3 -x {0.2 1.2 1 ------- null}
+ -t 0.14048 -s 0 -d 1 -p tcp -e 1040 -c 3 -i 41 -a 3 -x {0.2 1.2 2 ------- null}
r -t 0.14064 -s 1 -d 0 -p ack -e 40 -c 4 -i 20 -a 4 -x {1.3 0.3 0 ------- null}
+ -t 0.14064 -s 0 -d 1 -p tcp -e 1040 -c 4 -i 42 -a 4 -x {0.3 1.3 1 ------- null}
+ -t 0.14064 -s 0 -d 1 -p tcp -e 1040 -c 4 -i 43 -a 4 -x {0.3 1.3 2 ------- null}
- -t 0.140827796614662 -s 0 -d 1 -p tcp -e 1040 -c 2 -i 38 -a 2 -x {0.1 1.1 1 ------- null}
h -t 0.140827796614662 -s 0 -d 1 -p tcp -e 1040 -c 2 -i 38 -a 2 -x {0.1 1.1 -1 ------- null}
r -t 0.140894097940276 -s 0 -d 1 -p exp -e 210 -c 1 -i 17 -a 1 -x {0.0 1.0 14 ------- null}
+ -t 0.141107796614662 -s 0 -d 1 -p exp -e 210 -c 1 -i 44 -a 1 -x {0.0 1.0 32 ------- null}
r -t 0.142014097940276 -s 0 -d 1 -p exp -e 210 -c 1 -i 21 -a 1 -x {0.0 1.0 15 ------- null}
r -t 0.143134097940276 -s 0 -d 1 -p exp -e 210 -c 1 -i 22 -a 1 -x {0.0 1.0 16 ------- null}
r -t 0.144254097940276 -s 0 -d 1 -p exp -e 210 -c 1 -i 23 -a 1 -x {0.0 1.0 17 ------- null}
- -t 0.144987796614662 -s 0 -d 1 -p tcp -e 1040 -c 2 -i 39 -a 2 -x {0.1 1.1 2 ------- null}
h -t 0.144987796614662 -s 0 -d 1 -p tcp -e 1040 -c 2 -i 39 -a 2 -x {0.1 1.1 -1 ------- null}
r -t 0.145374097940276 -s 0 -d 1 -p exp -e 210 -c 1 -i 24 -a 1 -x {0.0 1.0 18 ------- null}
r -t 0.146494097940276 -s 0 -d 1 -p exp -e 210 -c 1 -i 25 -a 1 -x {0.0 1.0 19 ------- null}
r -t 0.147614097940276 -s 0 -d 1 -p exp -e 210 -c 1 -i 26 -a 1 -x {0.0 1.0 20 ------- null}
r -t 0.148734097940276 -s 0 -d 1 -p exp -e 210 -c 1 -i 27 -a 1 -x {0.0 1.0 21 ------- null}
- -t 0.149147796614662 -s 0 -d 1 -p tcp -e 1040 -c 3 -i 40 -a 3 -x {0.2 1.2 1 ------- null}
h -t 0.149147796614662 -s 0 -d 1 -p tcp -e 1040 -c 3 -i 40 -a 3 -x {0.2 1.2 -1 ------- null}
r -t 0.149854097940276 -s 0 -d 1 -p exp -e 210 -c 1 -i 28 -a 1 -x {0.0 1.0 22 ------- null}
r -t 0.151867796614662 -s 0 -d 1 -p exp -e 210 -c 1 -i 29 -a 1 -x {0.0 1.0 23 ------- null}
r -t 0.152987796614662 -s 0 -d 1 -p exp -e 210 -c 1 -i 30 -a 1 -x {0.0 1.0 24 ------- null}
- -t 0.153307796614662 -s 0 -d 1 -p tcp -e 1040 -c 3 -i 41 -a 3 -x {0.2 1.2 2 ------- null}
h -t 0.153307796614662 -s 0 -d 1 -p tcp -e 1040 -c 3 -i 41 -a 3 -x {0.2 1.2 -1 ------- null}
r -t 0.154107796614662 -s 0 -d 1 -p exp -e 210 -c 1 -i 31 -a 1 -x {0.0 1.0 25 ------- null}
r -t 0.155227796614662 -s 0 -d 1 -p exp -e 210 -c 1 -i 32 -a 1 -x {0.0 1.0 26 ------- null}
r -t 0.156347796614662 -s 0 -d 1 -p exp -e 210 -c 1 -i 33 -a 1 -x {0.0 1.0 27 ------- null}
r -t 0.157467796614662 -s 0 -d 1 -p exp -e 210 -c 1 -i 34 -a 1 -x {0.0 1.0 28 ------- null}
- -t 0.157467796614662 -s 0 -d 1 -p tcp -e 1040 -c 4 -i 42 -a 4 -x {0.3 1.3 1 ------- null}
h -t 0.157467796614662 -s 0 -d 1 -p tcp -e 1040 -c 4 -i 42 -a 4 -x {0.3 1.3 -1 ------- null}
+ -t 0.157984518316152 -s 0 -d 1 -p exp -e 210 -c 1 -i 45 -a 1 -x {0.0 1.0 33 ------- null}
r -t 0.158587796614662 -s 0 -d 1 -p exp -e 210 -c 1 -i 35 -a 1 -x {0.0 1.0 29 ------- null}
+ -t 0.159104518316152 -s 0 -d 1 -p exp -e 210 -c 1 -i 46 -a 1 -x {0.0 1.0 34 ------- null}
r -t 0.159707796614662 -s 0 -d 1 -p exp -e 210 -c 1 -i 36 -a 1 -x {0.0 1.0 30 ------- null}
+ -t 0.160224518316152 -s 0 -d 1 -p exp -e 210 -c 1 -i 47 -a 1 -x {0.0 1.0 35 ------- null}
r -t 0.160827796614662 -s 0 -d 1 -p exp -e 210 -c 1 -i 37 -a 1 -x {0.0 1.0 31 ------- null}
+ -t 0.161344518316152 -s 0 -d 1 -p exp -e 210 -c 1 -i 48 -a 1 -x {0.0 1.0 36 ------- null}
- -t 0.161627796614662 -s 0 -d 1 -p tcp -e 1040 -c 4 -i 43 -a 4 -x {0.3 1.3 2 ------- null}
h -t 0.161627796614662 -s 0 -d 1 -p tcp -e 1040 -c 4 -i 43 -a 4 -x {0.3 1.3 -1 ------- null}
+ -t 0.162464518316152 -s 0 -d 1 -p exp -e 210 -c 1 -i 49 -a 1 -x {0.0 1.0 37 ------- null}
+ -t 0.163584518316152 -s 0 -d 1 -p exp -e 210 -c 1 -i 50 -a 1 -x {0.0 1.0 38 ------- null}
+ -t 0.164704518316152 -s 0 -d 1 -p exp -e 210 -c 1 -i 51 -a 1 -x {0.0 1.0 39 ------- null}
r -t 0.164987796614662 -s 0 -d 1 -p tcp -e 1040 -c 2 -i 38 -a 2 -x {0.1 1.1 1 ------- null}
+ -t 0.164987796614662 -s 1 -d 0 -p ack -e 40 -c 2 -i 52 -a 2 -x {1.1 0.1 1 ------- null}
- -t 0.164987796614662 -s 1 -d 0 -p ack -e 40 -c 2 -i 52 -a 2 -x {1.1 0.1 1 ------- null}
h -t 0.164987796614662 -s 1 -d 0 -p ack -e 40 -c 2 -i 52 -a 2 -x {1.1 0.1 -1 ------- null}
- -t 0.165787796614662 -s 0 -d 1 -p exp -e 210 -c 1 -i 44 -a 1 -x {0.0 1.0 32 ------- null}
h -t 0.165787796614662 -s 0 -d 1 -p exp -e 210 -c 1 -i 44 -a 1 -x {0.0 1.0 -1 ------- null}
+ -t 0.165824518316152 -s 0 -d 1 -p exp -e 210 -c 1 -i 53 -a 1 -x {0.0 1.0 40 ------- null}
- -t 0.166627796614662 -s 0 -d 1 -p exp -e 210 -c 1 -i 45 -a 1 -x {0.0 1.0 33 ------- null}
h -t 0.166627796614662 -s 0 -d 1 -p exp -e 210 -c 1 -i 45 -a 1 -x {0.0 1.0 -1 ------- null}
+ -t 0.166944518316152 -s 0 -d 1 -p exp -e 210 -c 1 -i 54 -a 1 -x {0.0 1.0 41 ------- null}
- -t 0.167467796614662 -s 0 -d 1 -p exp -e 210 -c 1 -i 46 -a 1 -x {0.0 1.0 34 ------- null}
h -t 0.167467796614662 -s 0 -d 1 -p exp -e 210 -c 1 -i 46 -a 1 -x {0.0 1.0 -1 ------- null}
+ -t 0.168064518316152 -s 0 -d 1 -p exp -e 210 -c 1 -i 55 -a 1 -x {0.0 1.0 42 ------- null}
- -t 0.168307796614662 -s 0 -d 1 -p exp -e 210 -c 1 -i 47 -a 1 -x {0.0 1.0 35 ------- null}
h -t 0.168307796614662 -s 0 -d 1 -p exp -e 210 -c 1 -i 47 -a 1 -x {0.0 1.0 -1 ------- null}
r -t 0.169147796614662 -s 0 -d 1 -p tcp -e 1040 -c 2 -i 39 -a 2 -x {0.1 1.1 2 ------- null}
+ -t 0.169147796614662 -s 1 -d 0 -p ack -e 40 -c 2 -i 56 -a 2 -x {1.1 0.1 2 ------- null}
- -t 0.169147796614662 -s 1 -d 0 -p ack -e 40 -c 2 -i 56 -a 2 -x {1.1 0.1 2 ------- null}
h -t 0.169147796614662 -s 1 -d 0 -p ack -e 40 -c 2 -i 56 -a 2 -x {1.1 0.1 -1 ------- null}
- -t 0.169147796614662 -s 0 -d 1 -p exp -e 210 -c 1 -i 48 -a 1 -x {0.0 1.0 36 ------- null}
h -t 0.169147796614662 -s 0 -d 1 -p exp -e 210 -c 1 -i 48 -a 1 -x {0.0 1.0 -1 ------- null}
+ -t 0.169184518316152 -s 0 -d 1 -p exp -e 210 -c 1 -i 57 -a 1 -x {0.0 1.0 43 ------- null}
- -t 0.169987796614662 -s 0 -d 1 -p exp -e 210 -c 1 -i 49 -a 1 -x {0.0 1.0 37 ------- null}
h -t 0.169987796614662 -s 0 -d 1 -p exp -e 210 -c 1 -i 49 -a 1 -x {0.0 1.0 -1 ------- null}
+ -t 0.170304518316152 -s 0 -d 1 -p exp -e 210 -c 1 -i 58 -a 1 -x {0.0 1.0 44 ------- null}
- -t 0.170827796614662 -s 0 -d 1 -p exp -e 210 -c 1 -i 50 -a 1 -x {0.0 1.0 38 ------- null}
h -t 0.170827796614662 -s 0 -d 1 -p exp -e 210 -c 1 -i 50 -a 1 -x {0.0 1.0 -1 ------- null}
+ -t 0.171424518316152 -s 0 -d 1 -p exp -e 210 -c 1 -i 59 -a 1 -x {0.0 1.0 45 ------- null}
- -t 0.171667796614662 -s 0 -d 1 -p exp -e 210 -c 1 -i 51 -a 1 -x {0.0 1.0 39 ------- null}
h -t 0.171667796614662 -s 0 -d 1 -p exp -e 210 -c 1 -i 51 -a 1 -x {0.0 1.0 -1 ------- null}
- -t 0.172507796614662 -s 0 -d 1 -p exp -e 210 -c 1 -i 53 -a 1 -x {0.0 1.0 40 ------- null}
h -t 0.172507796614662 -s 0 -d 1 -p exp -e 210 -c 1 -i 53 -a 1 -x {0.0 1.0 -1 ------- null}
+ -t 0.172544518316152 -s 0 -d 1 -p exp -e 210 -c 1 -i 60 -a 1 -x {0.0 1.0 46 ------- null}
r -t 0.173307796614662 -s 0 -d 1 -p tcp -e 1040 -c 3 -i 40 -a 3 -x {0.2 1.2 1 ------- null}
+ -t 0.173307796614662 -s 1 -d 0 -p ack -e 40 -c 3 -i 61 -a 3 -x {1.2 0.2 1 ------- null}
- -t 0.173307796614662 -s 1 -d 0 -p ack -e 40 -c 3 -i 61 -a 3 -x {1.2 0.2 1 ------- null}
h -t 0.173307796614662 -s 1 -d 0 -p ack -e 40 -c 3 -i 61 -a 3 -x {1.2 0.2 -1 ------- null}
- -t 0.173347796614662 -s 0 -d 1 -p exp -e 210 -c 1 -i 54 -a 1 -x {0.0 1.0 41 ------- null}
h -t 0.173347796614662 -s 0 -d 1 -p exp -e 210 -c 1 -i 54 -a 1 -x {0.0 1.0 -1 ------- null}
+ -t 0.173664518316152 -s 0 -d 1 -p exp -e 210 -c 1 -i 62 -a 1 -x {0.0 1.0 47 ------- null}
- -t 0.174187796614662 -s 0 -d 1 -p exp -e 210 -c 1 -i 55 -a 1 -x {0.0 1.0 42 ------- null}
h -t 0.174187796614662 -s 0 -d 1 -p exp -e 210 -c 1 -i 55 -a 1 -x {0.0 1.0 -1 ------- null}
+ -t 0.174784518316152 -s 0 -d 1 -p exp -e 210 -c 1 -i 63 -a 1 -x {0.0 1.0 48 ------- null}
- -t 0.175027796614662 -s 0 -d 1 -p exp -e 210 -c 1 -i 57 -a 1 -x {0.0 1.0 43 ------- null}
h -t 0.175027796614662 -s 0 -d 1 -p exp -e 210 -c 1 -i 57 -a 1 -x {0.0 1.0 -1 ------- null}
- -t 0.175867796614662 -s 0 -d 1 -p exp -e 210 -c 1 -i 58 -a 1 -x {0.0 1.0 44 ------- null}
h -t 0.175867796614662 -s 0 -d 1 -p exp -e 210 -c 1 -i 58 -a 1 -x {0.0 1.0 -1 ------- null}
- -t 0.176707796614662 -s 0 -d 1 -p exp -e 210 -c 1 -i 59 -a 1 -x {0.0 1.0 45 ------- null}
h -t 0.176707796614662 -s 0 -d 1 -p exp -e 210 -c 1 -i 59 -a 1 -x {0.0 1.0 -1 ------- null}
r -t 0.177467796614662 -s 0 -d 1 -p tcp -e 1040 -c 3 -i 41 -a 3 -x {0.2 1.2 2 ------- null}
+ -t 0.177467796614662 -s 1 -d 0 -p ack -e 40 -c 3 -i 64 -a 3 -x {1.2 0.2 2 ------- null}
- -t 0.177467796614662 -s 1 -d 0 -p ack -e 40 -c 3 -i 64 -a 3 -x {1.2 0.2 2 ------- null}
h -t 0.177467796614662 -s 1 -d 0 -p ack -e 40 -c 3 -i 64 -a 3 -x {1.2 0.2 -1 ------- null}
- -t 0.177547796614662 -s 0 -d 1 -p exp -e 210 -c 1 -i 60 -a 1 -x {0.0 1.0 46 ------- null}
h -t 0.177547796614662 -s 0 -d 1 -p exp -e 210 -c 1 -i 60 -a 1 -x {0.0 1.0 -1 ------- null}
- -t 0.178387796614662 -s 0 -d 1 -p exp -e 210 -c 1 -i 62 -a 1 -x {0.0 1.0 47 ------- null}
h -t 0.178387796614662 -s 0 -d 1 -p exp -e 210 -c 1 -i 62 -a 1 -x {0.0 1.0 -1 ------- null}
- -t 0.179227796614662 -s 0 -d 1 -p exp -e 210 -c 1 -i 63 -a 1 -x {0.0 1.0 48 ------- null}
h -t 0.179227796614662 -s 0 -d 1 -p exp -e 210 -c 1 -i 63 -a 1 -x {0.0 1.0 -1 ------- null}
r -t 0.181627796614662 -s 0 -d 1 -p tcp -e 1040 -c 4 -i 42 -a 4 -x {0.3 1.3 1 ------- null}
+ -t 0.181627796614662 -s 1 -d 0 -p ack -e 40 -c 4 -i 65 -a 4 -x {1.3 0.3 1 ------- null}
- -t 0.181627796614662 -s 1 -d 0 -p ack -e 40 -c 4 -i 65 -a 4 -x {1.3 0.3 1 ------- null}
h -t 0.181627796614662 -s 1 -d 0 -p ack -e 40 -c 4 -i 65 -a 4 -x {1.3 0.3 -1 ------- null}
r -t 0.185147796614662 -s 1 -d 0 -p ack -e 40 -c 2 -i 52 -a 2 -x {1.1 0.1 1 ------- null}
+ -t 0.185147796614662 -s 0 -d 1 -p tcp -e 1040 -c 2 -i 66 -a 2 -x {0.1 1.1 3 ------- null}
- -t 0.185147796614662 -s 0 -d 1 -p tcp -e 1040 -c 2 -i 66 -a 2 -x {0.1 1.1 3 ------- null}
h -t 0.185147796614662 -s 0 -d 1 -p tcp -e 1040 -c 2 -i 66 -a 2 -x {0.1 1.1 -1 ------- null}
+ -t 0.185147796614662 -s 0 -d 1 -p tcp -e 1040 -c 2 -i 67 -a 2 -x {0.1 1.1 4 ------- null}
r -t 0.185787796614662 -s 0 -d 1 -p tcp -e 1040 -c 4 -i 43 -a 4 -x {0.3 1.3 2 ------- null}
+ -t 0.185787796614662 -s 1 -d 0 -p ack -e 40 -c 4 -i 68 -a 4 -x {1.3 0.3 2 ------- null}
- -t 0.185787796614662 -s 1 -d 0 -p ack -e 40 -c 4 -i 68 -a 4 -x {1.3 0.3 2 ------- null}
h -t 0.185787796614662 -s 1 -d 0 -p ack -e 40 -c 4 -i 68 -a 4 -x {1.3 0.3 -1 ------- null}
r -t 0.186627796614662 -s 0 -d 1 -p exp -e 210 -c 1 -i 44 -a 1 -x {0.0 1.0 32 ------- null}
+ -t 0.186770719700033 -s 0 -d 1 -p exp -e 210 -c 1 -i 69 -a 1 -x {0.0 1.0 49 ------- null}
r -t 0.187467796614662 -s 0 -d 1 -p exp -e 210 -c 1 -i 45 -a 1 -x {0.0 1.0 33 ------- null}
+ -t 0.187890719700033 -s 0 -d 1 -p exp -e 210 -c 1 -i 70 -a 1 -x {0.0 1.0 50 ------- null}
r -t 0.188307796614662 -s 0 -d 1 -p exp -e 210 -c 1 -i 46 -a 1 -x {0.0 1.0 34 ------- null}
+ -t 0.189010719700033 -s 0 -d 1 -p exp -e 210 -c 1 -i 71 -a 1 -x {0.0 1.0 51 ------- null}
r -t 0.189147796614662 -s 0 -d 1 -p exp -e 210 -c 1 -i 47 -a 1 -x {0.0 1.0 35 ------- null}
r -t 0.189307796614662 -s 1 -d 0 -p ack -e 40 -c 2 -i 56 -a 2 -x {1.1 0.1 2 ------- null}
+ -t 0.189307796614662 -s 0 -d 1 -p tcp -e 1040 -c 2 -i 72 -a 2 -x {0.1 1.1 5 ------- null}
+ -t 0.189307796614662 -s 0 -d 1 -p tcp -e 1040 -c 2 -i 73 -a 2 -x {0.1 1.1 6 ------- null}
- -t 0.189307796614662 -s 0 -d 1 -p tcp -e 1040 -c 2 -i 67 -a 2 -x {0.1 1.1 4 ------- null}
h -t 0.189307796614662 -s 0 -d 1 -p tcp -e 1040 -c 2 -i 67 -a 2 -x {0.1 1.1 -1 ------- null}
r -t 0.189987796614662 -s 0 -d 1 -p exp -e 210 -c 1 -i 48 -a 1 -x {0.0 1.0 36 ------- null}
+ -t 0.190130719700033 -s 0 -d 1 -p exp -e 210 -c 1 -i 74 -a 1 -x {0.0 1.0 52 ------- null}
r -t 0.190827796614662 -s 0 -d 1 -p exp -e 210 -c 1 -i 49 -a 1 -x {0.0 1.0 37 ------- null}
r -t 0.191667796614662 -s 0 -d 1 -p exp -e 210 -c 1 -i 50 -a 1 -x {0.0 1.0 38 ------- null}
r -t 0.192507796614662 -s 0 -d 1 -p exp -e 210 -c 1 -i 51 -a 1 -x {0.0 1.0 39 ------- null}
r -t 0.193347796614662 -s 0 -d 1 -p exp -e 210 -c 1 -i 53 -a 1 -x {0.0 1.0 40 ------- null}
r -t 0.193467796614662 -s 1 -d 0 -p ack -e 40 -c 3 -i 61 -a 3 -x {1.2 0.2 1 ------- null}
+ -t 0.193467796614662 -s 0 -d 1 -p tcp -e 1040 -c 3 -i 75 -a 3 -x {0.2 1.2 3 ------- null}
+ -t 0.193467796614662 -s 0 -d 1 -p tcp -e 1040 -c 3 -i 76 -a 3 -x {0.2 1.2 4 ------- null}
- -t 0.193467796614662 -s 0 -d 1 -p exp -e 210 -c 1 -i 69 -a 1 -x {0.0 1.0 49 ------- null}
h -t 0.193467796614662 -s 0 -d 1 -p exp -e 210 -c 1 -i 69 -a 1 -x {0.0 1.0 -1 ------- null}
r -t 0.194187796614662 -s 0 -d 1 -p exp -e 210 -c 1 -i 54 -a 1 -x {0.0 1.0 41 ------- null}
- -t 0.194307796614662 -s 0 -d 1 -p exp -e 210 -c 1 -i 70 -a 1 -x {0.0 1.0 50 ------- null}
h -t 0.194307796614662 -s 0 -d 1 -p exp -e 210 -c 1 -i 70 -a 1 -x {0.0 1.0 -1 ------- null}
r -t 0.195027796614662 -s 0 -d 1 -p exp -e 210 -c 1 -i 55 -a 1 -x {0.0 1.0 42 ------- null}
- -t 0.195147796614662 -s 0 -d 1 -p exp -e 210 -c 1 -i 71 -a 1 -x {0.0 1.0 51 ------- null}
h -t 0.195147796614662 -s 0 -d 1 -p exp -e 210 -c 1 -i 71 -a 1 -x {0.0 1.0 -1 ------- null}
+ -t 0.195544878379276 -s 0 -d 1 -p exp -e 210 -c 1 -i 77 -a 1 -x {0.0 1.0 53 ------- null}
r -t 0.195867796614662 -s 0 -d 1 -p exp -e 210 -c 1 -i 57 -a 1 -x {0.0 1.0 43 ------- null}
- -t 0.195987796614662 -s 0 -d 1 -p tcp -e 1040 -c 2 -i 72 -a 2 -x {0.1 1.1 5 ------- null}
h -t 0.195987796614662 -s 0 -d 1 -p tcp -e 1040 -c 2 -i 72 -a 2 -x {0.1 1.1 -1 ------- null}
r -t 0.196707796614662 -s 0 -d 1 -p exp -e 210 -c 1 -i 58 -a 1 -x {0.0 1.0 44 ------- null}
r -t 0.197547796614662 -s 0 -d 1 -p exp -e 210 -c 1 -i 59 -a 1 -x {0.0 1.0 45 ------- null}
r -t 0.197627796614662 -s 1 -d 0 -p ack -e 40 -c 3 -i 64 -a 3 -x {1.2 0.2 2 ------- null}
+ -t 0.197627796614662 -s 0 -d 1 -p tcp -e 1040 -c 3 -i 78 -a 3 -x {0.2 1.2 5 ------- null}
+ -t 0.197627796614662 -s 0 -d 1 -p tcp -e 1040 -c 3 -i 79 -a 3 -x {0.2 1.2 6 ------- null}
r -t 0.198387796614662 -s 0 -d 1 -p exp -e 210 -c 1 -i 60 -a 1 -x {0.0 1.0 46 ------- null}
r -t 0.199227796614662 -s 0 -d 1 -p exp -e 210 -c 1 -i 62 -a 1 -x {0.0 1.0 47 ------- null}
r -t 0.200067796614662 -s 0 -d 1 -p exp -e 210 -c 1 -i 63 -a 1 -x {0.0 1.0 48 ------- null}
- -t 0.200147796614662 -s 0 -d 1 -p tcp -e 1040 -c 2 -i 73 -a 2 -x {0.1 1.1 6 ------- null}
h -t 0.200147796614662 -s 0 -d 1 -p tcp -e 1040 -c 2 -i 73 -a 2 -x {0.1 1.1 -1 ------- null}
r -t 0.201787796614662 -s 1 -d 0 -p ack -e 40 -c 4 -i 65 -a 4 -x {1.3 0.3 1 ------- null}
+ -t 0.201787796614662 -s 0 -d 1 -p tcp -e 1040 -c 4 -i 80 -a 4 -x {0.3 1.3 3 ------- null}
+ -t 0.201787796614662 -s 0 -d 1 -p tcp -e 1040 -c 4 -i 81 -a 4 -x {0.3 1.3 4 ------- null}
- -t 0.204307796614662 -s 0 -d 1 -p exp -e 210 -c 1 -i 74 -a 1 -x {0.0 1.0 52 ------- null}
h -t 0.204307796614662 -s 0 -d 1 -p exp -e 210 -c 1 -i 74 -a 1 -x {0.0 1.0 -1 ------- null}
- -t 0.205147796614662 -s 0 -d 1 -p tcp -e 1040 -c 3 -i 75 -a 3 -x {0.2 1.2 3 ------- null}
h -t 0.205147796614662 -s 0 -d 1 -p tcp -e 1040 -c 3 -i 75 -a 3 -x {0.2 1.2 -1 ------- null}
r -t 0.205947796614662 -s 1 -d 0 -p ack -e 40 -c 4 -i 68 -a 4 -x {1.3 0.3 2 ------- null}
+ -t 0.205947796614662 -s 0 -d 1 -p tcp -e 1040 -c 4 -i 82 -a 4 -x {0.3 1.3 5 ------- null}
+ -t 0.205947796614662 -s 0 -d 1 -p tcp -e 1040 -c 4 -i 83 -a 4 -x {0.3 1.3 6 ------- null}
+ -t 0.208479800432203 -s 0 -d 1 -p exp -e 210 -c 1 -i 84 -a 1 -x {0.0 1.0 54 ------- null}
r -t 0.209307796614662 -s 0 -d 1 -p tcp -e 1040 -c 2 -i 66 -a 2 -x {0.1 1.1 3 ------- null}
+ -t 0.209307796614662 -s 1 -d 0 -p ack -e 40 -c 2 -i 85 -a 2 -x {1.1 0.1 3 ------- null}
- -t 0.209307796614662 -s 1 -d 0 -p ack -e 40 -c 2 -i 85 -a 2 -x {1.1 0.1 3 ------- null}
h -t 0.209307796614662 -s 1 -d 0 -p ack -e 40 -c 2 -i 85 -a 2 -x {1.1 0.1 -1 ------- null}
- -t 0.209307796614662 -s 0 -d 1 -p tcp -e 1040 -c 3 -i 76 -a 3 -x {0.2 1.2 4 ------- null}
h -t 0.209307796614662 -s 0 -d 1 -p tcp -e 1040 -c 3 -i 76 -a 3 -x {0.2 1.2 -1 ------- null}
+ -t 0.209599800432203 -s 0 -d 1 -p exp -e 210 -c 1 -i 86 -a 1 -x {0.0 1.0 55 ------- null}
+ -t 0.210719800432203 -s 0 -d 1 -p exp -e 210 -c 1 -i 87 -a 1 -x {0.0 1.0 56 ------- null}
+ -t 0.211839800432203 -s 0 -d 1 -p exp -e 210 -c 1 -i 88 -a 1 -x {0.0 1.0 57 ------- null}
+ -t 0.212959800432203 -s 0 -d 1 -p exp -e 210 -c 1 -i 89 -a 1 -x {0.0 1.0 58 ------- null}
r -t 0.213467796614662 -s 0 -d 1 -p tcp -e 1040 -c 2 -i 67 -a 2 -x {0.1 1.1 4 ------- null}
+ -t 0.213467796614662 -s 1 -d 0 -p ack -e 40 -c 2 -i 90 -a 2 -x {1.1 0.1 4 ------- null}
- -t 0.213467796614662 -s 1 -d 0 -p ack -e 40 -c 2 -i 90 -a 2 -x {1.1 0.1 4 ------- null}
h -t 0.213467796614662 -s 1 -d 0 -p ack -e 40 -c 2 -i 90 -a 2 -x {1.1 0.1 -1 ------- null}
- -t 0.213467796614662 -s 0 -d 1 -p exp -e 210 -c 1 -i 77 -a 1 -x {0.0 1.0 53 ------- null}
h -t 0.213467796614662 -s 0 -d 1 -p exp -e 210 -c 1 -i 77 -a 1 -x {0.0 1.0 -1 ------- null}
+ -t 0.214079800432203 -s 0 -d 1 -p exp -e 210 -c 1 -i 91 -a 1 -x {0.0 1.0 59 ------- null}
r -t 0.214307796614662 -s 0 -d 1 -p exp -e 210 -c 1 -i 69 -a 1 -x {0.0 1.0 49 ------- null}
- -t 0.214307796614662 -s 0 -d 1 -p tcp -e 1040 -c 3 -i 78 -a 3 -x {0.2 1.2 5 ------- null}
h -t 0.214307796614662 -s 0 -d 1 -p tcp -e 1040 -c 3 -i 78 -a 3 -x {0.2 1.2 -1 ------- null}
r -t 0.215147796614662 -s 0 -d 1 -p exp -e 210 -c 1 -i 70 -a 1 -x {0.0 1.0 50 ------- null}
+ -t 0.215199800432203 -s 0 -d 1 -p exp -e 210 -c 1 -i 92 -a 1 -x {0.0 1.0 60 ------- null}
r -t 0.215987796614662 -s 0 -d 1 -p exp -e 210 -c 1 -i 71 -a 1 -x {0.0 1.0 51 ------- null}