+ 0 0 1 tcp 40 ------- 2 0.1 1.1 0 0
- 0 0 1 tcp 40 ------- 2 0.1 1.1 0 0
+ 0 0 1 tcp 40 ------- 3 0.2 1.2 0 1
+ 0 0 1 tcp 40 ------- 4 0.3 1.3 0 2
- 0.00016 0 1 tcp 40 ------- 3 0.2 1.2 0 1
- 0.00032 0 1 tcp 40 ------- 4 0.3 1.3 0 2
+ 0.002134 0 1 exp 210 ------- 1 0.0 1.0 0 3
- 0.002134 0 1 exp 210 ------- 1 0.0 1.0 0 3
+ 0.003254 0 1 exp 210 ------- 1 0.0 1.0 1 4
- 0.003254 0 1 exp 210 ------- 1 0.0 1.0 1 4
+ 0.004374 0 1 exp 210 ------- 1 0.0 1.0 2 5
- 0.004374 0 1 exp 210 ------- 1 0.0 1.0 2 5
+ 0.005494 0 1 exp 210 ------- 1 0.0 1.0 3 6
- 0.005494 0 1 exp 210 ------- 1 0.0 1.0 3 6
+ 0.006614 0 1 exp 210 ------- 1 0.0 1.0 4 7
- 0.006614 0 1 exp 210 ------- 1 0.0 1.0 4 7
+ 0.007734 0 1 exp 210 ------- 1 0.0 1.0 5 8
- 0.007734 0 1 exp 210 ------- 1 0.0 1.0 5 8
+ 0.008854 0 1 exp 210 ------- 1 0.0 1.0 6 9
- 0.008854 0 1 exp 210 ------- 1 0.0 1.0 6 9
+ 0.009974 0 1 exp 210 ------- 1 0.0 1.0 7 10
- 0.009974 0 1 exp 210 ------- 1 0.0 1.0 7 10
+ 0.011094 0 1 exp 210 ------- 1 0.0 1.0 8 11
- 0.011094 0 1 exp 210 ------- 1 0.0 1.0 8 11
+ 0.012214 0 1 exp 210 ------- 1 0.0 1.0 9 12
- 0.012214 0 1 exp 210 ------- 1 0.0 1.0 9 12
+ 0.015574 0 1 exp 210 ------- 1 0.0 1.0 10 13
- 0.015574 0 1 exp 210 ------- 1 0.0 1.0 10 13
+ 0.016694 0 1 exp 210 ------- 1 0.0 1.0 11 14
- 0.016694 0 1 exp 210 ------- 1 0.0 1.0 11 14
+ 0.017814 0 1 exp 210 ------- 1 0.0 1.0 12 15
- 0.017814 0 1 exp 210 ------- 1 0.0 1.0 12 15
+ 0.018934 0 1 exp 210 ------- 1 0.0 1.0 13 16
- 0.018934 0 1 exp 210 ------- 1 0.0 1.0 13 16
+ 0.020054 0 1 exp 210 ------- 1 0.0 1.0 14 17
- 0.020054 0 1 exp 210 ------- 1 0.0 1.0 14 17
r 0.02016 0 1 tcp 40 ------- 2 0.1 1.1 0 0
+ 0.02016 1 0 ack 40 ------- 2 1.1 0.1 0 18
- 0.02016 1 0 ack 40 ------- 2 1.1 0.1 0 18
r 0.02032 0 1 tcp 40 ------- 3 0.2 1.2 0 1
+ 0.02032 1 0 ack 40 ------- 3 1.2 0.2 0 19
- 0.02032 1 0 ack 40 ------- 3 1.2 0.2 0 19
r 0.02048 0 1 tcp 40 ------- 4 0.3 1.3 0 2
+ 0.02048 1 0 ack 40 ------- 4 1.3 0.3 0 20
- 0.02048 1 0 ack 40 ------- 4 1.3 0.3 0 20
+ 0.021174 0 1 exp 210 ------- 1 0.0 1.0 15 21
- 0.021174 0 1 exp 210 ------- 1 0.0 1.0 15 21
+ 0.022294 0 1 exp 210 ------- 1 0.0 1.0 16 22
- 0.022294 0 1 exp 210 ------- 1 0.0 1.0 16 22
r 0.022974 0 1 exp 210 ------- 1 0.0 1.0 0 3
+ 0.023414 0 1 exp 210 ------- 1 0.0 1.0 17 23
- 0.023414 0 1 exp 210 ------- 1 0.0 1.0 17 23
r 0.024094 0 1 exp 210 ------- 1 0.0 1.0 1 4
+ 0.024534 0 1 exp 210 ------- 1 0.0 1.0 18 24
- 0.024534 0 1 exp 210 ------- 1 0.0 1.0 18 24
r 0.025214 0 1 exp 210 ------- 1 0.0 1.0 2 5
+ 0.025654 0 1 exp 210 ------- 1 0.0 1.0 19 25
- 0.025654 0 1 exp 210 ------- 1 0.0 1.0 19 25
r 0.026334 0 1 exp 210 ------- 1 0.0 1.0 3 6
+ 0.026774 0 1 exp 210 ------- 1 0.0 1.0 20 26
- 0.026774 0 1 exp 210 ------- 1 0.0 1.0 20 26
r 0.027454 0 1 exp 210 ------- 1 0.0 1.0 4 7
+ 0.027894 0 1 exp 210 ------- 1 0.0 1.0 21 27
- 0.027894 0 1 exp 210 ------- 1 0.0 1.0 21 27
r 0.028574 0 1 exp 210 ------- 1 0.0 1.0 5 8
+ 0.029014 0 1 exp 210 ------- 1 0.0 1.0 22 28
- 0.029014 0 1 exp 210 ------- 1 0.0 1.0 22 28
r 0.029694 0 1 exp 210 ------- 1 0.0 1.0 6 9
r 0.030814 0 1 exp 210 ------- 1 0.0 1.0 7 10
+ 0.031028 0 1 exp 210 ------- 1 0.0 1.0 23 29
- 0.031028 0 1 exp 210 ------- 1 0.0 1.0 23 29
r 0.031934 0 1 exp 210 ------- 1 0.0 1.0 8 11
+ 0.032148 0 1 exp 210 ------- 1 0.0 1.0 24 30
- 0.032148 0 1 exp 210 ------- 1 0.0 1.0 24 30
r 0.033054 0 1 exp 210 ------- 1 0.0 1.0 9 12
+ 0.033268 0 1 exp 210 ------- 1 0.0 1.0 25 31
- 0.033268 0 1 exp 210 ------- 1 0.0 1.0 25 31
+ 0.034388 0 1 exp 210 ------- 1 0.0 1.0 26 32
- 0.034388 0 1 exp 210 ------- 1 0.0 1.0 26 32
+ 0.035508 0 1 exp 210 ------- 1 0.0 1.0 27 33
- 0.035508 0 1 exp 210 ------- 1 0.0 1.0 27 33
r 0.036414 0 1 exp 210 ------- 1 0.0 1.0 10 13
+ 0.036628 0 1 exp 210 ------- 1 0.0 1.0 28 34
- 0.036628 0 1 exp 210 ------- 1 0.0 1.0 28 34
r 0.037534 0 1 exp 210 ------- 1 0.0 1.0 11 14
+ 0.037748 0 1 exp 210 ------- 1 0.0 1.0 29 35
- 0.037748 0 1 exp 210 ------- 1 0.0 1.0 29 35
r 0.038654 0 1 exp 210 ------- 1 0.0 1.0 12 15
+ 0.038868 0 1 exp 210 ------- 1 0.0 1.0 30 36
- 0.038868 0 1 exp 210 ------- 1 0.0 1.0 30 36
r 0.039774 0 1 exp 210 ------- 1 0.0 1.0 13 16
+ 0.039988 0 1 exp 210 ------- 1 0.0 1.0 31 37
- 0.039988 0 1 exp 210 ------- 1 0.0 1.0 31 37
r 0.04032 1 0 ack 40 ------- 2 1.1 0.1 0 18
+ 0.04032 0 1 tcp 6290 ------- 2 0.1 1.1 1 38
r 0.04048 1 0 ack 40 ------- 3 1.2 0.2 0 19
+ 0.04048 0 1 tcp 12540 ------- 3 0.2 1.2 1 39
r 0.04064 1 0 ack 40 ------- 4 1.3 0.3 0 20
+ 0.04064 0 1 tcp 18790 ------- 4 0.3 1.3 1 40
- 0.040828 0 1 tcp 6290 ------- 2 0.1 1.1 1 38
r 0.040894 0 1 exp 210 ------- 1 0.0 1.0 14 17
+ 0.041108 0 1 exp 210 ------- 1 0.0 1.0 32 41
r 0.042014 0 1 exp 210 ------- 1 0.0 1.0 15 21
r 0.043134 0 1 exp 210 ------- 1 0.0 1.0 16 22
r 0.044254 0 1 exp 210 ------- 1 0.0 1.0 17 23
r 0.045374 0 1 exp 210 ------- 1 0.0 1.0 18 24
r 0.046494 0 1 exp 210 ------- 1 0.0 1.0 19 25
r 0.047614 0 1 exp 210 ------- 1 0.0 1.0 20 26
r 0.048734 0 1 exp 210 ------- 1 0.0 1.0 21 27
r 0.049854 0 1 exp 210 ------- 1 0.0 1.0 22 28
+ 0.05 0 1 tcp 6290 ------- 2 0.1 1.1 2 42
r 0.051868 0 1 exp 210 ------- 1 0.0 1.0 23 29
r 0.052988 0 1 exp 210 ------- 1 0.0 1.0 24 30
r 0.054108 0 1 exp 210 ------- 1 0.0 1.0 25 31
r 0.055228 0 1 exp 210 ------- 1 0.0 1.0 26 32
r 0.056348 0 1 exp 210 ------- 1 0.0 1.0 27 33
r 0.057468 0 1 exp 210 ------- 1 0.0 1.0 28 34
+ 0.057985 0 1 exp 210 ------- 1 0.0 1.0 33 43
r 0.058588 0 1 exp 210 ------- 1 0.0 1.0 29 35
+ 0.059105 0 1 exp 210 ------- 1 0.0 1.0 34 44
r 0.059708 0 1 exp 210 ------- 1 0.0 1.0 30 36
+ 0.060225 0 1 exp 210 ------- 1 0.0 1.0 35 45
r 0.060828 0 1 exp 210 ------- 1 0.0 1.0 31 37
+ 0.061345 0 1 exp 210 ------- 1 0.0 1.0 36 46
+ 0.062465 0 1 exp 210 ------- 1 0.0 1.0 37 47
+ 0.063585 0 1 exp 210 ------- 1 0.0 1.0 38 48
+ 0.064705 0 1 exp 210 ------- 1 0.0 1.0 39 49
+ 0.065825 0 1 exp 210 ------- 1 0.0 1.0 40 50
- 0.065988 0 1 tcp 12540 ------- 3 0.2 1.2 1 39
+ 0.066945 0 1 exp 210 ------- 1 0.0 1.0 41 51
+ 0.068065 0 1 exp 210 ------- 1 0.0 1.0 42 52
+ 0.069185 0 1 exp 210 ------- 1 0.0 1.0 43 53
+ 0.070305 0 1 exp 210 ------- 1 0.0 1.0 44 54
+ 0.071425 0 1 exp 210 ------- 1 0.0 1.0 45 55
+ 0.072545 0 1 exp 210 ------- 1 0.0 1.0 46 56
+ 0.073665 0 1 exp 210 ------- 1 0.0 1.0 47 57
+ 0.074785 0 1 exp 210 ------- 1 0.0 1.0 48 58
r 0.085988 0 1 tcp 6290 ------- 2 0.1 1.1 1 38
+ 0.085988 1 0 ack 40 ------- 2 1.1 0.1 1 59
- 0.085988 1 0 ack 40 ------- 2 1.1 0.1 1 59
+ 0.086771 0 1 exp 210 ------- 1 0.0 1.0 49 60
+ 0.087891 0 1 exp 210 ------- 1 0.0 1.0 50 61
+ 0.089011 0 1 exp 210 ------- 1 0.0 1.0 51 62
+ 0.090131 0 1 exp 210 ------- 1 0.0 1.0 52 63
+ 0.095545 0 1 exp 210 ------- 1 0.0 1.0 53 64
+ 0.1 0 1 tcp 12540 ------- 3 0.2 1.2 2 65
r 0.106148 1 0 ack 40 ------- 2 1.1 0.1 1 59
+ 0.106148 0 1 tcp 6290 ------- 2 0.1 1.1 3 66
+ 0.10848 0 1 exp 210 ------- 1 0.0 1.0 54 67
+ 0.1096 0 1 exp 210 ------- 1 0.0 1.0 55 68
+ 0.11072 0 1 exp 210 ------- 1 0.0 1.0 56 69
+ 0.11184 0 1 exp 210 ------- 1 0.0 1.0 57 70
+ 0.11296 0 1 exp 210 ------- 1 0.0 1.0 58 71
+ 0.11408 0 1 exp 210 ------- 1 0.0 1.0 59 72
+ 0.1152 0 1 exp 210 ------- 1 0.0 1.0 60 73
- 0.116148 0 1 tcp 18790 ------- 4 0.3 1.3 1 40
+ 0.11632 0 1 exp 210 ------- 1 0.0 1.0 61 74
+ 0.11744 0 1 exp 210 ------- 1 0.0 1.0 62 75
+ 0.11856 0 1 exp 210 ------- 1 0.0 1.0 63 76
+ 0.11968 0 1 exp 210 ------- 1 0.0 1.0 64 77
+ 0.1208 0 1 exp 210 ------- 1 0.0 1.0 65 78
+ 0.12192 0 1 exp 210 ------- 1 0.0 1.0 66 79
+ 0.12304 0 1 exp 210 ------- 1 0.0 1.0 67 80
+ 0.12416 0 1 exp 210 ------- 1 0.0 1.0 68 81
+ 0.12528 0 1 exp 210 ------- 1 0.0 1.0 69 82
+ 0.131667 0 1 exp 210 ------- 1 0.0 1.0 70 83
+ 0.132787 0 1 exp 210 ------- 1 0.0 1.0 71 84
r 0.136148 0 1 tcp 12540 ------- 3 0.2 1.2 1 39
+ 0.136148 1 0 ack 40 ------- 3 1.2 0.2 1 85
- 0.136148 1 0 ack 40 ------- 3 1.2 0.2 1 85
+ 0.138381 0 1 exp 210 ------- 1 0.0 1.0 72 86
+ 0.139501 0 1 exp 210 ------- 1 0.0 1.0 73 87
+ 0.140621 0 1 exp 210 ------- 1 0.0 1.0 74 88
+ 0.141741 0 1 exp 210 ------- 1 0.0 1.0 75 89
+ 0.142861 0 1 exp 210 ------- 1 0.0 1.0 76 90
+ 0.143981 0 1 exp 210 ------- 1 0.0 1.0 77 91
+ 0.145101 0 1 exp 210 ------- 1 0.0 1.0 78 92
+ 0.146221 0 1 exp 210 ------- 1 0.0 1.0 79 93
+ 0.147341 0 1 exp 210 ------- 1 0.0 1.0 80 94
+ 0.148461 0 1 exp 210 ------- 1 0.0 1.0 81 95
+ 0.149581 0 1 exp 210 ------- 1 0.0 1.0 82 96
+ 0.15 0 1 tcp 18790 ------- 4 0.3 1.3 2 97
+ 0.15 0 1 tcp 6290 ------- 2 0.1 1.1 4 98
+ 0.150701 0 1 exp 210 ------- 1 0.0 1.0 83 99
+ 0.155638 0 1 exp 210 ------- 1 0.0 1.0 84 100
r 0.156308 1 0 ack 40 ------- 3 1.2 0.2 1 85
+ 0.156758 0 1 exp 210 ------- 1 0.0 1.0 85 101
+ 0.157878 0 1 exp 210 ------- 1 0.0 1.0 86 102
+ 0.158998 0 1 exp 210 ------- 1 0.0 1.0 87 103
+ 0.160118 0 1 exp 210 ------- 1 0.0 1.0 88 104
+ 0.161238 0 1 exp 210 ------- 1 0.0 1.0 89 105
+ 0.1631 0 1 exp 210 ------- 1 0.0 1.0 90 106
+ 0.16422 0 1 exp 210 ------- 1 0.0 1.0 91 107
+ 0.16534 0 1 exp 210 ------- 1 0.0 1.0 92 108
+ 0.174095 0 1 exp 210 ------- 1 0.0 1.0 93 109
+ 0.175215 0 1 exp 210 ------- 1 0.0 1.0 94 110
+ 0.177141 0 1 exp 210 ------- 1 0.0 1.0 95 111
+ 0.178261 0 1 exp 210 ------- 1 0.0 1.0 96 112
+ 0.179381 0 1 exp 210 ------- 1 0.0 1.0 97 113
+ 0.180501 0 1 exp 210 ------- 1 0.0 1.0 98 114
+ 0.181621 0 1 exp 210 ------- 1 0.0 1.0 99 115
+ 0.182741 0 1 exp 210 ------- 1 0.0 1.0 100 116
+ 0.183861 0 1 exp 210 ------- 1 0.0 1.0 101 117
+ 0.184981 0 1 exp 210 ------- 1 0.0 1.0 102 118
+ 0.186101 0 1 exp 210 ------- 1 0.0 1.0 103 119
+ 0.187221 0 1 exp 210 ------- 1 0.0 1.0 104 120
+ 0.188341 0 1 exp 210 ------- 1 0.0 1.0 105 121
+ 0.189461 0 1 exp 210 ------- 1 0.0 1.0 106 122
+ 0.190581 0 1 exp 210 ------- 1 0.0 1.0 107 123
- 0.191308 0 1 exp 210 ------- 1 0.0 1.0 32 41
- 0.192148 0 1 tcp 6290 ------- 2 0.1 1.1 2 42
+ 0.193059 0 1 exp 210 ------- 1 0.0 1.0 108 124
+ 0.194179 0 1 exp 210 ------- 1 0.0 1.0 109 125
+ 0.195299 0 1 exp 210 ------- 1 0.0 1.0 110 126
+ 0.2 0 1 tcp 12540 ------- 3 0.2 1.2 3 127
+ 0.200932 0 1 exp 210 ------- 1 0.0 1.0 111 128
+ 0.206581 0 1 exp 210 ------- 1 0.0 1.0 112 129
+ 0.207701 0 1 exp 210 ------- 1 0.0 1.0 113 130
+ 0.208821 0 1 exp 210 ------- 1 0.0 1.0 114 131
+ 0.209941 0 1 exp 210 ------- 1 0.0 1.0 115 132
+ 0.211061 0 1 exp 210 ------- 1 0.0 1.0 116 133
r 0.211308 0 1 tcp 18790 ------- 4 0.3 1.3 1 40
+ 0.211308 1 0 ack 40 ------- 4 1.3 0.3 1 134
- 0.211308 1 0 ack 40 ------- 4 1.3 0.3 1 134
r 0.212148 0 1 exp 210 ------- 1 0.0 1.0 32 41
+ 0.212181 0 1 exp 210 ------- 1 0.0 1.0 117 135
+ 0.213301 0 1 exp 210 ------- 1 0.0 1.0 118 136
+ 0.214421 0 1 exp 210 ------- 1 0.0 1.0 119 137
+ 0.215541 0 1 exp 210 ------- 1 0.0 1.0 120 138
+ 0.216661 0 1 exp 210 ------- 1 0.0 1.0 121 139
- 0.217308 0 1 exp 210 ------- 1 0.0 1.0 33 43
+ 0.217781 0 1 exp 210 ------- 1 0.0 1.0 122 140
- 0.218148 0 1 exp 210 ------- 1 0.0 1.0 34 44
+ 0.218901 0 1 exp 210 ------- 1 0.0 1.0 123 141
- 0.218988 0 1 exp 210 ------- 1 0.0 1.0 35 45
- 0.219828 0 1 exp 210 ------- 1 0.0 1.0 36 46
+ 0.220021 0 1 exp 210 ------- 1 0.0 1.0 124 142
- 0.220668 0 1 exp 210 ------- 1 0.0 1.0 37 47
+ 0.221141 0 1 exp 210 ------- 1 0.0 1.0 125 143
- 0.221508 0 1 exp 210 ------- 1 0.0 1.0 38 48
+ 0.222261 0 1 exp 210 ------- 1 0.0 1.0 126 144
- 0.222348 0 1 exp 210 ------- 1 0.0 1.0 39 49
- 0.223188 0 1 exp 210 ------- 1 0.0 1.0 40 50
+ 0.223381 0 1 exp 210 ------- 1 0.0 1.0 127 145
- 0.224028 0 1 exp 210 ------- 1 0.0 1.0 41 51
+ 0.224501 0 1 exp 210 ------- 1 0.0 1.0 128 146
- 0.224868 0 1 exp 210 ------- 1 0.0 1.0 42 52
+ 0.225621 0 1 exp 210 ------- 1 0.0 1.0 129 147
- 0.225708 0 1 exp 210 ------- 1 0.0 1.0 43 53
- 0.226548 0 1 exp 210 ------- 1 0.0 1.0 44 54
+ 0.226741 0 1 exp 210 ------- 1 0.0 1.0 130 148
- 0.227388 0 1 exp 210 ------- 1 0.0 1.0 45 55
+ 0.227861 0 1 exp 210 ------- 1 0.0 1.0 131 149
- 0.228228 0 1 exp 210 ------- 1 0.0 1.0 46 56
- 0.229068 0 1 exp 210 ------- 1 0.0 1.0 47 57
+ 0.229578 0 1 exp 210 ------- 1 0.0 1.0 132 150
- 0.229908 0 1 exp 210 ------- 1 0.0 1.0 48 58
+ 0.230698 0 1 exp 210 ------- 1 0.0 1.0 133 151
- 0.230748 0 1 exp 210 ------- 1 0.0 1.0 49 60
r 0.231468 1 0 ack 40 ------- 4 1.3 0.3 1 134
- 0.231588 0 1 exp 210 ------- 1 0.0 1.0 50 61
+ 0.231818 0 1 exp 210 ------- 1 0.0 1.0 134 152
- 0.232428 0 1 exp 210 ------- 1 0.0 1.0 51 62
+ 0.232938 0 1 exp 210 ------- 1 0.0 1.0 135 153
- 0.233268 0 1 exp 210 ------- 1 0.0 1.0 52 63
+ 0.234058 0 1 exp 210 ------- 1 0.0 1.0 136 154
- 0.234108 0 1 exp 210 ------- 1 0.0 1.0 53 64
- 0.234948 0 1 tcp 12540 ------- 3 0.2 1.2 2 65
+ 0.235178 0 1 exp 210 ------- 1 0.0 1.0 137 155
+ 0.236298 0 1 exp 210 ------- 1 0.0 1.0 138 156
r 0.237308 0 1 tcp 6290 ------- 2 0.1 1.1 2 42
+ 0.237308 1 0 ack 40 ------- 2 1.1 0.1 2 157
- 0.237308 1 0 ack 40 ------- 2 1.1 0.1 2 157
+ 0.237418 0 1 exp 210 ------- 1 0.0 1.0 139 158
r 0.238148 0 1 exp 210 ------- 1 0.0 1.0 33 43
+ 0.238538 0 1 exp 210 ------- 1 0.0 1.0 140 159
r 0.238988 0 1 exp 210 ------- 1 0.0 1.0 34 44
+ 0.239658 0 1 exp 210 ------- 1 0.0 1.0 141 160
r 0.239828 0 1 exp 210 ------- 1 0.0 1.0 35 45
r 0.240668 0 1 exp 210 ------- 1 0.0 1.0 36 46
+ 0.240778 0 1 exp 210 ------- 1 0.0 1.0 142 161
r 0.241508 0 1 exp 210 ------- 1 0.0 1.0 37 47
+ 0.241898 0 1 exp 210 ------- 1 0.0 1.0 143 162
r 0.242348 0 1 exp 210 ------- 1 0.0 1.0 38 48
+ 0.243018 0 1 exp 210 ------- 1 0.0 1.0 144 163
r 0.243188 0 1 exp 210 ------- 1 0.0 1.0 39 49
r 0.244028 0 1 exp 210 ------- 1 0.0 1.0 40 50
+ 0.244138 0 1 exp 210 ------- 1 0.0 1.0 145 164
r 0.244868 0 1 exp 210 ------- 1 0.0 1.0 41 51
+ 0.245258 0 1 exp 210 ------- 1 0.0 1.0 146 165
r 0.245708 0 1 exp 210 ------- 1 0.0 1.0 42 52
r 0.246548 0 1 exp 210 ------- 1 0.0 1.0 43 53
+ 0.246953 0 1 exp 210 ------- 1 0.0 1.0 147 166
r 0.247388 0 1 exp 210 ------- 1 0.0 1.0 44 54
r 0.248228 0 1 exp 210 ------- 1 0.0 1.0 45 55
r 0.249068 0 1 exp 210 ------- 1 0.0 1.0 46 56
r 0.249908 0 1 exp 210 ------- 1 0.0 1.0 47 57
r 0.250748 0 1 exp 210 ------- 1 0.0 1.0 48 58
r 0.251588 0 1 exp 210 ------- 1 0.0 1.0 49 60
r 0.252428 0 1 exp 210 ------- 1 0.0 1.0 50 61
r 0.253268 0 1 exp 210 ------- 1 0.0 1.0 51 62
r 0.254108 0 1 exp 210 ------- 1 0.0 1.0 52 63
r 0.254948 0 1 exp 210 ------- 1 0.0 1.0 53 64
r 0.257468 1 0 ack 40 ------- 2 1.1 0.1 2 157
+ 0.257468 0 1 tcp 6290 ------- 2 0.1 1.1 5 167
+ 0.257468 0 1 tcp 6290 ------- 2 0.1 1.1 6 168
d 0.257468 0 1 tcp 6290 ------- 2 0.1 1.1 6 168
+ 0.262275 0 1 exp 210 ------- 1 0.0 1.0 148 169
d 0.262275 0 1 exp 210 ------- 1 0.0 1.0 148 169
+ 0.263395 0 1 exp 210 ------- 1 0.0 1.0 149 170
d 0.263395 0 1 exp 210 ------- 1 0.0 1.0 149 170
+ 0.264515 0 1 exp 210 ------- 1 0.0 1.0 150 171
d 0.264515 0 1 exp 210 ------- 1 0.0 1.0 150 171
+ 0.265635 0 1 exp 210 ------- 1 0.0 1.0 151 172
d 0.265635 0 1 exp 210 ------- 1 0.0 1.0 151 172
+ 0.266755 0 1 exp 210 ------- 1 0.0 1.0 152 173
d 0.266755 0 1 exp 210 ------- 1 0.0 1.0 152 173
+ 0.267875 0 1 exp 210 ------- 1 0.0 1.0 153 174
d 0.267875 0 1 exp 210 ------- 1 0.0 1.0 153 174
+ 0.268995 0 1 exp 210 ------- 1 0.0 1.0 154 175
d 0.268995 0 1 exp 210 ------- 1 0.0 1.0 154 175
+ 0.270115 0 1 exp 210 ------- 1 0.0 1.0 155 176
d 0.270115 0 1 exp 210 ------- 1 0.0 1.0 155 176
+ 0.271235 0 1 exp 210 ------- 1 0.0 1.0 156 177
d 0.271235 0 1 exp 210 ------- 1 0.0 1.0 156 177
+ 0.272355 0 1 exp 210 ------- 1 0.0 1.0 157 178
d 0.272355 0 1 exp 210 ------- 1 0.0 1.0 157 178
+ 0.273475 0 1 exp 210 ------- 1 0.0 1.0 158 179
d 0.273475 0 1 exp 210 ------- 1 0.0 1.0 158 179
+ 0.274595 0 1 exp 210 ------- 1 0.0 1.0 159 180
d 0.274595 0 1 exp 210 ------- 1 0.0 1.0 159 180
+ 0.275715 0 1 exp 210 ------- 1 0.0 1.0 160 181
d 0.275715 0 1 exp 210 ------- 1 0.0 1.0 160 181
+ 0.276835 0 1 exp 210 ------- 1 0.0 1.0 161 182
d 0.276835 0 1 exp 210 ------- 1 0.0 1.0 161 182
+ 0.277955 0 1 exp 210 ------- 1 0.0 1.0 162 183
d 0.277955 0 1 exp 210 ------- 1 0.0 1.0 162 183
+ 0.279075 0 1 exp 210 ------- 1 0.0 1.0 163 184
d 0.279075 0 1 exp 210 ------- 1 0.0 1.0 163 184
+ 0.280195 0 1 exp 210 ------- 1 0.0 1.0 164 185
d 0.280195 0 1 exp 210 ------- 1 0.0 1.0 164 185
+ 0.281315 0 1 exp 210 ------- 1 0.0 1.0 165 186
d 0.281315 0 1 exp 210 ------- 1 0.0 1.0 165 186
+ 0.282435 0 1 exp 210 ------- 1 0.0 1.0 166 187
d 0.282435 0 1 exp 210 ------- 1 0.0 1.0 166 187
+ 0.283555 0 1 exp 210 ------- 1 0.0 1.0 167 188
d 0.283555 0 1 exp 210 ------- 1 0.0 1.0 167 188
- 0.285108 0 1 tcp 6290 ------- 2 0.1 1.1 3 66
+ 0.287271 0 1 exp 210 ------- 1 0.0 1.0 168 189
+ 0.288391 0 1 exp 210 ------- 1 0.0 1.0 169 190
d 0.288391 0 1 exp 210 ------- 1 0.0 1.0 169 190
+ 0.289511 0 1 exp 210 ------- 1 0.0 1.0 170 191
d 0.289511 0 1 exp 210 ------- 1 0.0 1.0 170 191
+ 0.290631 0 1 exp 210 ------- 1 0.0 1.0 171 192
d 0.290631 0 1 exp 210 ------- 1 0.0 1.0 171 192
+ 0.291751 0 1 exp 210 ------- 1 0.0 1.0 172 193
d 0.291751 0 1 exp 210 ------- 1 0.0 1.0 172 193
+ 0.292871 0 1 exp 210 ------- 1 0.0 1.0 173 194
d 0.292871 0 1 exp 210 ------- 1 0.0 1.0 173 194
+ 0.293991 0 1 exp 210 ------- 1 0.0 1.0 174 195
d 0.293991 0 1 exp 210 ------- 1 0.0 1.0 174 195
+ 0.295111 0 1 exp 210 ------- 1 0.0 1.0 175 196
d 0.295111 0 1 exp 210 ------- 1 0.0 1.0 175 196
+ 0.296231 0 1 exp 210 ------- 1 0.0 1.0 176 197
d 0.296231 0 1 exp 210 ------- 1 0.0 1.0 176 197
+ 0.297351 0 1 exp 210 ------- 1 0.0 1.0 177 198
d 0.297351 0 1 exp 210 ------- 1 0.0 1.0 177 198
+ 0.298471 0 1 exp 210 ------- 1 0.0 1.0 178 199
d 0.298471 0 1 exp 210 ------- 1 0.0 1.0 178 199
+ 0.299591 0 1 exp 210 ------- 1 0.0 1.0 179 200
d 0.299591 0 1 exp 210 ------- 1 0.0 1.0 179 200
+ 0.3 0 1 tcp 18790 ------- 4 0.3 1.3 3 201
d 0.3 0 1 tcp 18790 ------- 4 0.3 1.3 3 201
+ 0.3 0 1 tcp 12540 ------- 3 0.2 1.2 4 202
d 0.3 0 1 tcp 12540 ------- 3 0.2 1.2 4 202
+ 0.300711 0 1 exp 210 ------- 1 0.0 1.0 180 203
d 0.300711 0 1 exp 210 ------- 1 0.0 1.0 180 203
+ 0.301831 0 1 exp 210 ------- 1 0.0 1.0 181 204
d 0.301831 0 1 exp 210 ------- 1 0.0 1.0 181 204
+ 0.302951 0 1 exp 210 ------- 1 0.0 1.0 182 205
d 0.302951 0 1 exp 210 ------- 1 0.0 1.0 182 205
+ 0.304071 0 1 exp 210 ------- 1 0.0 1.0 183 206
d 0.304071 0 1 exp 210 ------- 1 0.0 1.0 183 206
r 0.305108 0 1 tcp 12540 ------- 3 0.2 1.2 2 65
+ 0.305108 1 0 ack 40 ------- 3 1.2 0.2 2 207
- 0.305108 1 0 ack 40 ------- 3 1.2 0.2 2 207
+ 0.305191 0 1 exp 210 ------- 1 0.0 1.0 184 208
d 0.305191 0 1 exp 210 ------- 1 0.0 1.0 184 208
+ 0.306311 0 1 exp 210 ------- 1 0.0 1.0 185 209
d 0.306311 0 1 exp 210 ------- 1 0.0 1.0 185 209
+ 0.307431 0 1 exp 210 ------- 1 0.0 1.0 186 210
d 0.307431 0 1 exp 210 ------- 1 0.0 1.0 186 210
+ 0.308551 0 1 exp 210 ------- 1 0.0 1.0 187 211
d 0.308551 0 1 exp 210 ------- 1 0.0 1.0 187 211
+ 0.309671 0 1 exp 210 ------- 1 0.0 1.0 188 212
d 0.309671 0 1 exp 210 ------- 1 0.0 1.0 188 212
- 0.310268 0 1 exp 210 ------- 1 0.0 1.0 54 67
+ 0.310791 0 1 exp 210 ------- 1 0.0 1.0 189 213
- 0.311108 0 1 exp 210 ------- 1 0.0 1.0 55 68
+ 0.311911 0 1 exp 210 ------- 1 0.0 1.0 190 214
- 0.311948 0 1 exp 210 ------- 1 0.0 1.0 56 69
- 0.312788 0 1 exp 210 ------- 1 0.0 1.0 57 70
+ 0.313031 0 1 exp 210 ------- 1 0.0 1.0 191 215
- 0.313628 0 1 exp 210 ------- 1 0.0 1.0 58 71
+ 0.314151 0 1 exp 210 ------- 1 0.0 1.0 192 216
- 0.314468 0 1 exp 210 ------- 1 0.0 1.0 59 72
+ 0.315271 0 1 exp 210 ------- 1 0.0 1.0 193 217
- 0.315308 0 1 exp 210 ------- 1 0.0 1.0 60 73
- 0.316148 0 1 exp 210 ------- 1 0.0 1.0 61 74
+ 0.316391 0 1 exp 210 ------- 1 0.0 1.0 194 218
- 0.316988 0 1 exp 210 ------- 1 0.0 1.0 62 75
+ 0.317511 0 1 exp 210 ------- 1 0.0 1.0 195 219
- 0.317828 0 1 exp 210 ------- 1 0.0 1.0 63 76
+ 0.318631 0 1 exp 210 ------- 1 0.0 1.0 196 220
- 0.318668 0 1 exp 210 ------- 1 0.0 1.0 64 77
- 0.319508 0 1 exp 210 ------- 1 0.0 1.0 65 78
+ 0.319751 0 1 exp 210 ------- 1 0.0 1.0 197 221
- 0.320348 0 1 exp 210 ------- 1 0.0 1.0 66 79
+ 0.320871 0 1 exp 210 ------- 1 0.0 1.0 198 222
- 0.321188 0 1 exp 210 ------- 1 0.0 1.0 67 80
+ 0.321991 0 1 exp 210 ------- 1 0.0 1.0 199 223
- 0.322028 0 1 exp 210 ------- 1 0.0 1.0 68 81
- 0.322868 0 1 exp 210 ------- 1 0.0 1.0 69 82
+ 0.323111 0 1 exp 210 ------- 1 0.0 1.0 200 224
- 0.323708 0 1 exp 210 ------- 1 0.0 1.0 70 83
+ 0.324231 0 1 exp 210 ------- 1 0.0 1.0 201 225
- 0.324548 0 1 exp 210 ------- 1 0.0 1.0 71 84
r 0.325268 1 0 ack 40 ------- 3 1.2 0.2 2 207
+ 0.325351 0 1 exp 210 ------- 1 0.0 1.0 202 226
- 0.325388 0 1 exp 210 ------- 1 0.0 1.0 72 86
- 0.326228 0 1 exp 210 ------- 1 0.0 1.0 73 87
+ 0.326471 0 1 exp 210 ------- 1 0.0 1.0 203 227
- 0.327068 0 1 exp 210 ------- 1 0.0 1.0 74 88
+ 0.327591 0 1 exp 210 ------- 1 0.0 1.0 204 228
- 0.327908 0 1 exp 210 ------- 1 0.0 1.0 75 89
+ 0.328711 0 1 exp 210 ------- 1 0.0 1.0 205 229
- 0.328748 0 1 exp 210 ------- 1 0.0 1.0 76 90
- 0.329588 0 1 exp 210 ------- 1 0.0 1.0 77 91
+ 0.329831 0 1 exp 210 ------- 1 0.0 1.0 206 230
r 0.330268 0 1 tcp 6290 ------- 2 0.1 1.1 3 66
+ 0.330268 1 0 ack 40 ------- 2 1.1 0.1 3 231
- 0.330268 1 0 ack 40 ------- 2 1.1 0.1 3 231
- 0.330428 0 1 exp 210 ------- 1 0.0 1.0 78 92
+ 0.330951 0 1 exp 210 ------- 1 0.0 1.0 207 232
r 0.331108 0 1 exp 210 ------- 1 0.0 1.0 54 67
- 0.331268 0 1 exp 210 ------- 1 0.0 1.0 79 93
r 0.331948 0 1 exp 210 ------- 1 0.0 1.0 55 68
- 0.332108 0 1 exp 210 ------- 1 0.0 1.0 80 94
r 0.332788 0 1 exp 210 ------- 1 0.0 1.0 56 69
- 0.332948 0 1 exp 210 ------- 1 0.0 1.0 81 95
r 0.333628 0 1 exp 210 ------- 1 0.0 1.0 57 70
- 0.333788 0 1 exp 210 ------- 1 0.0 1.0 82 96
r 0.334468 0 1 exp 210 ------- 1 0.0 1.0 58 71
- 0.334628 0 1 tcp 18790 ------- 4 0.3 1.3 2 97
r 0.335308 0 1 exp 210 ------- 1 0.0 1.0 59 72
r 0.336148 0 1 exp 210 ------- 1 0.0 1.0 60 73
r 0.336988 0 1 exp 210 ------- 1 0.0 1.0 61 74
r 0.337828 0 1 exp 210 ------- 1 0.0 1.0 62 75
r 0.338668 0 1 exp 210 ------- 1 0.0 1.0 63 76
r 0.339508 0 1 exp 210 ------- 1 0.0 1.0 64 77
r 0.340348 0 1 exp 210 ------- 1 0.0 1.0 65 78
r 0.341188 0 1 exp 210 ------- 1 0.0 1.0 66 79
r 0.342028 0 1 exp 210 ------- 1 0.0 1.0 67 80
+ 0.342545 0 1 exp 210 ------- 1 0.0 1.0 208 233
r 0.342868 0 1 exp 210 ------- 1 0.0 1.0 68 81
+ 0.343665 0 1 exp 210 ------- 1 0.0 1.0 209 234
r 0.343708 0 1 exp 210 ------- 1 0.0 1.0 69 82
r 0.344548 0 1 exp 210 ------- 1 0.0 1.0 70 83
+ 0.344785 0 1 exp 210 ------- 1 0.0 1.0 210 235
r 0.345388 0 1 exp 210 ------- 1 0.0 1.0 71 84
+ 0.345905 0 1 exp 210 ------- 1 0.0 1.0 211 236
r 0.346228 0 1 exp 210 ------- 1 0.0 1.0 72 86
+ 0.347025 0 1 exp 210 ------- 1 0.0 1.0 212 237
r 0.347068 0 1 exp 210 ------- 1 0.0 1.0 73 87
r 0.347908 0 1 exp 210 ------- 1 0.0 1.0 74 88
+ 0.348145 0 1 exp 210 ------- 1 0.0 1.0 213 238
r 0.348748 0 1 exp 210 ------- 1 0.0 1.0 75 89
+ 0.349265 0 1 exp 210 ------- 1 0.0 1.0 214 239
r 0.349588 0 1 exp 210 ------- 1 0.0 1.0 76 90
+ 0.350385 0 1 exp 210 ------- 1 0.0 1.0 215 240
r 0.350428 1 0 ack 40 ------- 2 1.1 0.1 3 231
+ 0.350428 0 1 tcp 6290 ------- 2 0.1 1.1 7 241
+ 0.350428 0 1 tcp 6290 ------- 2 0.1 1.1 8 242
r 0.350428 0 1 exp 210 ------- 1 0.0 1.0 77 91
r 0.351268 0 1 exp 210 ------- 1 0.0 1.0 78 92
+ 0.351505 0 1 exp 210 ------- 1 0.0 1.0 216 243
r 0.352108 0 1 exp 210 ------- 1 0.0 1.0 79 93
+ 0.352625 0 1 exp 210 ------- 1 0.0 1.0 217 244
d 0.352625 0 1 exp 210 ------- 1 0.0 1.0 217 244
r 0.352948 0 1 exp 210 ------- 1 0.0 1.0 80 94
r 0.353788 0 1 exp 210 ------- 1 0.0 1.0 81 95
r 0.354628 0 1 exp 210 ------- 1 0.0 1.0 82 96
+ 0.360538 0 1 exp 210 ------- 1 0.0 1.0 218 245
d 0.360538 0 1 exp 210 ------- 1 0.0 1.0 218 245
+ 0.361658 0 1 exp 210 ------- 1 0.0 1.0 219 246
d 0.361658 0 1 exp 210 ------- 1 0.0 1.0 219 246
+ 0.362778 0 1 exp 210 ------- 1 0.0 1.0 220 247
d 0.362778 0 1 exp 210 ------- 1 0.0 1.0 220 247
+ 0.363898 0 1 exp 210 ------- 1 0.0 1.0 221 248
d 0.363898 0 1 exp 210 ------- 1 0.0 1.0 221 248
+ 0.368055 0 1 exp 210 ------- 1 0.0 1.0 222 249
d 0.368055 0 1 exp 210 ------- 1 0.0 1.0 222 249
+ 0.369175 0 1 exp 210 ------- 1 0.0 1.0 223 250
d 0.369175 0 1 exp 210 ------- 1 0.0 1.0 223 250
+ 0.370295 0 1 exp 210 ------- 1 0.0 1.0 224 251
d 0.370295 0 1 exp 210 ------- 1 0.0 1.0 224 251
+ 0.378115 0 1 exp 210 ------- 1 0.0 1.0 225 252
d 0.378115 0 1 exp 210 ------- 1 0.0 1.0 225 252
+ 0.383505 0 1 exp 210 ------- 1 0.0 1.0 226 253
d 0.383505 0 1 exp 210 ------- 1 0.0 1.0 226 253
+ 0.384625 0 1 exp 210 ------- 1 0.0 1.0 227 254
d 0.384625 0 1 exp 210 ------- 1 0.0 1.0 227 254
+ 0.385745 0 1 exp 210 ------- 1 0.0 1.0 228 255
d 0.385745 0 1 exp 210 ------- 1 0.0 1.0 228 255
+ 0.386865 0 1 exp 210 ------- 1 0.0 1.0 229 256
d 0.386865 0 1 exp 210 ------- 1 0.0 1.0 229 256
+ 0.387985 0 1 exp 210 ------- 1 0.0 1.0 230 257
d 0.387985 0 1 exp 210 ------- 1 0.0 1.0 230 257
+ 0.394689 0 1 exp 210 ------- 1 0.0 1.0 231 258
d 0.394689 0 1 exp 210 ------- 1 0.0 1.0 231 258
+ 0.395809 0 1 exp 210 ------- 1 0.0 1.0 232 259
d 0.395809 0 1 exp 210 ------- 1 0.0 1.0 232 259
+ 0.396929 0 1 exp 210 ------- 1 0.0 1.0 233 260
d 0.396929 0 1 exp 210 ------- 1 0.0 1.0 233 260
+ 0.398049 0 1 exp 210 ------- 1 0.0 1.0 234 261
d 0.398049 0 1 exp 210 ------- 1 0.0 1.0 234 261
+ 0.399169 0 1 exp 210 ------- 1 0.0 1.0 235 262
d 0.399169 0 1 exp 210 ------- 1 0.0 1.0 235 262
+ 0.4 0 1 tcp 12540 ------- 3 0.2 1.2 5 263
d 0.4 0 1 tcp 12540 ------- 3 0.2 1.2 5 263
+ 0.400289 0 1 exp 210 ------- 1 0.0 1.0 236 264
d 0.400289 0 1 exp 210 ------- 1 0.0 1.0 236 264
+ 0.401409 0 1 exp 210 ------- 1 0.0 1.0 237 265
d 0.401409 0 1 exp 210 ------- 1 0.0 1.0 237 265
+ 0.402529 0 1 exp 210 ------- 1 0.0 1.0 238 266
d 0.402529 0 1 exp 210 ------- 1 0.0 1.0 238 266
+ 0.403649 0 1 exp 210 ------- 1 0.0 1.0 239 267
d 0.403649 0 1 exp 210 ------- 1 0.0 1.0 239 267
+ 0.404769 0 1 exp 210 ------- 1 0.0 1.0 240 268
d 0.404769 0 1 exp 210 ------- 1 0.0 1.0 240 268
+ 0.405889 0 1 exp 210 ------- 1 0.0 1.0 241 269
d 0.405889 0 1 exp 210 ------- 1 0.0 1.0 241 269
+ 0.407009 0 1 exp 210 ------- 1 0.0 1.0 242 270
d 0.407009 0 1 exp 210 ------- 1 0.0 1.0 242 270
+ 0.408129 0 1 exp 210 ------- 1 0.0 1.0 243 271
d 0.408129 0 1 exp 210 ------- 1 0.0 1.0 243 271
+ 0.409249 0 1 exp 210 ------- 1 0.0 1.0 244 272
d 0.409249 0 1 exp 210 ------- 1 0.0 1.0 244 272
- 0.409788 0 1 tcp 6290 ------- 2 0.1 1.1 4 98
+ 0.410369 0 1 exp 210 ------- 1 0.0 1.0 245 273
+ 0.411489 0 1 exp 210 ------- 1 0.0 1.0 246 274
d 0.411489 0 1 exp 210 ------- 1 0.0 1.0 246 274
+ 0.412609 0 1 exp 210 ------- 1 0.0 1.0 247 275
d 0.412609 0 1 exp 210 ------- 1 0.0 1.0 247 275
+ 0.413729 0 1 exp 210 ------- 1 0.0 1.0 248 276
d 0.413729 0 1 exp 210 ------- 1 0.0 1.0 248 276
+ 0.414849 0 1 exp 210 ------- 1 0.0 1.0 249 277
d 0.414849 0 1 exp 210 ------- 1 0.0 1.0 249 277
+ 0.415969 0 1 exp 210 ------- 1 0.0 1.0 250 278
d 0.415969 0 1 exp 210 ------- 1 0.0 1.0 250 278
+ 0.417089 0 1 exp 210 ------- 1 0.0 1.0 251 279
d 0.417089 0 1 exp 210 ------- 1 0.0 1.0 251 279
+ 0.418209 0 1 exp 210 ------- 1 0.0 1.0 252 280
d 0.418209 0 1 exp 210 ------- 1 0.0 1.0 252 280
+ 0.419329 0 1 exp 210 ------- 1 0.0 1.0 253 281
d 0.419329 0 1 exp 210 ------- 1 0.0 1.0 253 281
+ 0.420449 0 1 exp 210 ------- 1 0.0 1.0 254 282
d 0.420449 0 1 exp 210 ------- 1 0.0 1.0 254 282
+ 0.421569 0 1 exp 210 ------- 1 0.0 1.0 255 283
d 0.421569 0 1 exp 210 ------- 1 0.0 1.0 255 283
+ 0.422689 0 1 exp 210 ------- 1 0.0 1.0 256 284
d 0.422689 0 1 exp 210 ------- 1 0.0 1.0 256 284
+ 0.423809 0 1 exp 210 ------- 1 0.0 1.0 257 285
d 0.423809 0 1 exp 210 ------- 1 0.0 1.0 257 285
+ 0.424929 0 1 exp 210 ------- 1 0.0 1.0 258 286
d 0.424929 0 1 exp 210 ------- 1 0.0 1.0 258 286
+ 0.426049 0 1 exp 210 ------- 1 0.0 1.0 259 287
d 0.426049 0 1 exp 210 ------- 1 0.0 1.0 259 287
+ 0.427169 0 1 exp 210 ------- 1 0.0 1.0 260 288
d 0.427169 0 1 exp 210 ------- 1 0.0 1.0 260 288
+ 0.428289 0 1 exp 210 ------- 1 0.0 1.0 261 289
d 0.428289 0 1 exp 210 ------- 1 0.0 1.0 261 289
+ 0.429409 0 1 exp 210 ------- 1 0.0 1.0 262 290
d 0.429409 0 1 exp 210 ------- 1 0.0 1.0 262 290
r 0.429788 0 1 tcp 18790 ------- 4 0.3 1.3 2 97
+ 0.429788 1 0 ack 40 ------- 4 1.3 0.3 2 291
- 0.429788 1 0 ack 40 ------- 4 1.3 0.3 2 291
+ 0.43174 0 1 exp 210 ------- 1 0.0 1.0 263 292
d 0.43174 0 1 exp 210 ------- 1 0.0 1.0 263 292
+ 0.43286 0 1 exp 210 ------- 1 0.0 1.0 264 293
d 0.43286 0 1 exp 210 ------- 1 0.0 1.0 264 293
+ 0.43398 0 1 exp 210 ------- 1 0.0 1.0 265 294
d 0.43398 0 1 exp 210 ------- 1 0.0 1.0 265 294
- 0.434948 0 1 exp 210 ------- 1 0.0 1.0 83 99
+ 0.4351 0 1 exp 210 ------- 1 0.0 1.0 266 295
- 0.435788 0 1 exp 210 ------- 1 0.0 1.0 84 100
+ 0.43622 0 1 exp 210 ------- 1 0.0 1.0 267 296
- 0.436628 0 1 exp 210 ------- 1 0.0 1.0 85 101
+ 0.43734 0 1 exp 210 ------- 1 0.0 1.0 268 297
- 0.437468 0 1 exp 210 ------- 1 0.0 1.0 86 102
- 0.438308 0 1 exp 210 ------- 1 0.0 1.0 87 103
+ 0.43846 0 1 exp 210 ------- 1 0.0 1.0 269 298
- 0.439148 0 1 exp 210 ------- 1 0.0 1.0 88 104
+ 0.43958 0 1 exp 210 ------- 1 0.0 1.0 270 299
- 0.439988 0 1 exp 210 ------- 1 0.0 1.0 89 105
+ 0.4407 0 1 exp 210 ------- 1 0.0 1.0 271 300
- 0.440828 0 1 exp 210 ------- 1 0.0 1.0 90 106
- 0.441668 0 1 exp 210 ------- 1 0.0 1.0 91 107
+ 0.44182 0 1 exp 210 ------- 1 0.0 1.0 272 301
- 0.442508 0 1 exp 210 ------- 1 0.0 1.0 92 108
+ 0.44294 0 1 exp 210 ------- 1 0.0 1.0 273 302
- 0.443348 0 1 exp 210 ------- 1 0.0 1.0 93 109
+ 0.44406 0 1 exp 210 ------- 1 0.0 1.0 274 303
- 0.444188 0 1 exp 210 ------- 1 0.0 1.0 94 110
- 0.445028 0 1 exp 210 ------- 1 0.0 1.0 95 111
+ 0.44518 0 1 exp 210 ------- 1 0.0 1.0 275 304
- 0.445868 0 1 exp 210 ------- 1 0.0 1.0 96 112
+ 0.4463 0 1 exp 210 ------- 1 0.0 1.0 276 305
- 0.446708 0 1 exp 210 ------- 1 0.0 1.0 97 113
+ 0.44742 0 1 exp 210 ------- 1 0.0 1.0 277 306
- 0.447548 0 1 exp 210 ------- 1 0.0 1.0 98 114
- 0.448388 0 1 exp 210 ------- 1 0.0 1.0 99 115
- 0.449228 0 1 exp 210 ------- 1 0.0 1.0 100 116
+ 0.449829 0 1 exp 210 ------- 1 0.0 1.0 278 307
r 0.449948 1 0 ack 40 ------- 4 1.3 0.3 2 291
+ 0.45 0 1 tcp 18790 ------- 4 0.3 1.3 4 308
- 0.450068 0 1 exp 210 ------- 1 0.0 1.0 101 117
- 0.450908 0 1 exp 210 ------- 1 0.0 1.0 102 118
- 0.451748 0 1 exp 210 ------- 1 0.0 1.0 103 119
- 0.452588 0 1 exp 210 ------- 1 0.0 1.0 104 120
+ 0.452769 0 1 exp 210 ------- 1 0.0 1.0 279 309